 
data_CsCd4In5Te12 
 
_audit_creation_method            SHELXL-97 
_chemical_name_systematic 
; 
 ? 
; 
_chemical_name_common             ? 
_chemical_melting_point           ? 
_chemical_formula_moiety          'Cd4 Cs In5 Te12' 
_chemical_formula_sum 
 'Cd4 Cs In5 Te12' 
_chemical_formula_weight          2687.81 
 
loop_ 
 _atom_type_symbol 
 _atom_type_description 
 _atom_type_scat_dispersion_real 
 _atom_type_scat_dispersion_imag 
 _atom_type_scat_source 
 'Cd'  'Cd'  -0.8075   1.2024 
 'International Tables Vol C Tables 4.2.6.8 and 6.1.1.4' 
 'In'  'In'  -0.7276   1.3100 
 'International Tables Vol C Tables 4.2.6.8 and 6.1.1.4' 
 'Te'  'Te'  -0.5308   1.6751 
 'International Tables Vol C Tables 4.2.6.8 and 6.1.1.4' 
 'Cs'  'Cs'  -0.3680   2.1192 
 'International Tables Vol C Tables 4.2.6.8 and 6.1.1.4' 
 
_symmetry_cell_setting            'trigonal' 
_symmetry_space_group_name_H-M    'R3'       
 
loop_ 
 _symmetry_equiv_pos_as_xyz 
 'x, y, z' 
 '-y, x-y, z' 
 '-x+y, -x, z' 
 'x+2/3, y+1/3, z+1/3' 
 '-y+2/3, x-y+1/3, z+1/3' 
 '-x+y+2/3, -x+1/3, z+1/3' 
 'x+1/3, y+2/3, z+2/3' 
 '-y+1/3, x-y+2/3, z+2/3' 
 '-x+y+1/3, -x+2/3, z+2/3' 
 
_cell_length_a                    15.8837(6) 
_cell_length_b                    15.8837(6) 
_cell_length_c                    10.7939(7) 
_cell_angle_alpha                 90.00 
_cell_angle_beta                  90.00 
_cell_angle_gamma                 120.00 
_cell_volume                      2358.4(2) 
_cell_formula_units_Z             3 
_cell_measurement_temperature     293(2) 
_cell_measurement_reflns_used     1978    
_cell_measurement_theta_min       2.3983  
_cell_measurement_theta_max       27.4294 
 
_exptl_crystal_description        'Block'      
_exptl_crystal_colour             'Black' 
_exptl_crystal_size_max           0.1100 
_exptl_crystal_size_mid           0.0900 
_exptl_crystal_size_min           0.0800 
_exptl_crystal_density_meas       ? 
_exptl_crystal_density_diffrn     5.677 
_exptl_crystal_density_method     'not measured' 
_exptl_crystal_F_000              3348 
_exptl_absorpt_coefficient_mu     18.288 
_exptl_absorpt_correction_type    'Multi-scan' 
_exptl_absorpt_correction_T_min   0.5584       
_exptl_absorpt_correction_T_max   1.0000       
_exptl_absorpt_process_details    ? 
 
_exptl_special_details 
; 
 ? 
; 
 
_diffrn_ambient_temperature       293(2) 
_diffrn_radiation_wavelength      0.71073 
_diffrn_radiation_type            MoK\a 
_diffrn_radiation_source          'fine-focus sealed tube' 
_diffrn_radiation_monochromator   graphite 
_diffrn_measurement_device_type   Saturn70 
_diffrn_measurement_method        'CCD_Profile_fitting' 
_diffrn_detector_area_resol_mean  28.5714 
_diffrn_standards_number          ? 
_diffrn_standards_interval_count  ? 
_diffrn_standards_interval_time   ? 
_diffrn_standards_decay_%         ? 
_diffrn_reflns_number             2339 
_diffrn_reflns_av_R_equivalents   0.0253 
_diffrn_reflns_av_sigmaI/netI     0.0455 
_diffrn_reflns_limit_h_min        -11 
_diffrn_reflns_limit_h_max        20 
_diffrn_reflns_limit_k_min        -20 
_diffrn_reflns_limit_k_max        7 
_diffrn_reflns_limit_l_min        -10 
_diffrn_reflns_limit_l_max        13 
_diffrn_reflns_theta_min          2.40 
_diffrn_reflns_theta_max          27.50 
_reflns_number_total              1726 
_reflns_number_gt                 1583 
_reflns_threshold_expression      >2sigma(I) 
 
_computing_data_collection        'CrystalClear (Rigaku Inc., 2007)'
_computing_cell_refinement        'CrystalClear (Rigaku Inc., 2007)'
_computing_data_reduction         'CrystalClear (Rigaku Inc., 2007)'
_computing_structure_solution     'SHELXS-97 (Sheldrick, 1990)'      
_computing_structure_refinement   'SHELXL-97 (Sheldrick, 1997)'      
_computing_molecular_graphics     'Bruker SHELXTL'                  
_computing_publication_material   'Bruker SHELXTL'                  
 
_refine_special_details 
; 
 Refinement of F^2^ against ALL reflections.  The weighted R-factor wR and 
 goodness of fit S are based on F^2^, conventional R-factors R are based 
 on F, with F set to zero for negative F^2^. The threshold expression of 
 F^2^ > 2sigma(F^2^) is used only for calculating R-factors(gt) etc. and is 
 not relevant to the choice of reflections for refinement.  R-factors based 
 on F^2^ are statistically about twice as large as those based on F, and R- 
 factors based on ALL data will be even larger. 
; 
 
_refine_ls_structure_factor_coef  Fsqd  
_refine_ls_matrix_type            full 
_refine_ls_weighting_scheme       calc  
_refine_ls_weighting_details 
 'calc w=1/[\s^2^(Fo^2^)+(0.0365P)^2^+0.0000P] where P=(Fo^2^+2Fc^2^)/3' 
_atom_sites_solution_primary      direct 
_atom_sites_solution_secondary    difmap 
_atom_sites_solution_hydrogens    .
_refine_ls_hydrogen_treatment     . 
_refine_ls_extinction_method      none 
_refine_ls_extinction_coef        ? 
_refine_ls_abs_structure_details 
 'Flack H D (1983), Acta Cryst. A39, 876-881' 
_refine_ls_abs_structure_Flack    0.04(10) 
_refine_ls_number_reflns          1726 
_refine_ls_number_parameters      73 
_refine_ls_number_restraints      5 
_refine_ls_R_factor_all           0.0351 
_refine_ls_R_factor_gt            0.0313 
_refine_ls_wR_factor_ref          0.0696 
_refine_ls_wR_factor_gt           0.0683 
_refine_ls_goodness_of_fit_ref    1.009 
_refine_ls_restrained_S_all       1.007 
_refine_ls_shift/su_max           0.069 
_refine_ls_shift/su_mean          0.003 
 
loop_ 
 _atom_site_label 
 _atom_site_type_symbol 
 _atom_site_fract_x 
 _atom_site_fract_y 
 _atom_site_fract_z 
 _atom_site_U_iso_or_equiv 
 _atom_site_adp_type 
 _atom_site_occupancy 
 _atom_site_symmetry_multiplicity 
 _atom_site_calc_flag 
 _atom_site_refinement_flags 
 _atom_site_disorder_assembly 
 _atom_site_disorder_group 
Cs1 Cs 0.0000 0.0000 0.0000(2) 0.0442(5) Uani 1 3 d S . . 
Cd1 Cd 0.17881(7) 0.12741(6) 0.41952(10) 0.0234(2) Uani 0.362(2) 1 d P . . 
In1 In 0.17881(7) 0.12741(6) 0.41952(10) 0.0234(2) Uani 0.638(2) 1 d P . . 
Cd2 Cd 0.43375(7) 0.02076(7) 0.08000(9) 0.0220(3) Uani 0.492(3) 1 d P . . 
In2 In 0.43375(7) 0.02076(7) 0.08000(9) 0.0220(3) Uani 0.508(3) 1 d P . . 
Cd3 Cd 0.36018(7) 0.26006(7) 0.07985(10) 0.0203(2) Uani 0.479(3) 1 d P . . 
In3 In 0.36018(7) 0.26006(7) 0.07985(10) 0.0203(2) Uani 0.521(3) 1 d P . . 
Te1 Te 0.61835(6) 0.17120(7) 0.01067(8) 0.0191(2) Uani 1 1 d . . . 
Te2 Te 0.21253(7) 0.29440(6) 0.00609(8) 0.0188(2) Uani 1 1 d . . . 
Te3 Te 0.29146(7) 0.06718(6) 0.00432(8) 0.0185(2) Uani 1 1 d . . . 
Te4 Te 0.05137(6) 0.17687(6) 0.30613(9) 0.0192(2) Uani 1 1 d . . . 
 
loop_ 
 _atom_site_aniso_label 
 _atom_site_aniso_U_11 
 _atom_site_aniso_U_22 
 _atom_site_aniso_U_33 
 _atom_site_aniso_U_23 
 _atom_site_aniso_U_13 
 _atom_site_aniso_U_12 
Cs1 0.0424(6) 0.0424(6) 0.0479(11) 0.000 0.000 0.0212(3) 
Cd1 0.0221(5) 0.0191(5) 0.0293(5) -0.0008(4) -0.0005(4) 0.0105(4) 
In1 0.0221(5) 0.0191(5) 0.0293(5) -0.0008(4) -0.0005(4) 0.0105(4) 
Cd2 0.0198(5) 0.0190(5) 0.0282(6) 0.0018(4) 0.0004(4) 0.0103(4) 
In2 0.0198(5) 0.0190(5) 0.0282(6) 0.0018(4) 0.0004(4) 0.0103(4) 
Cd3 0.0179(4) 0.0172(4) 0.0267(5) -0.0007(4) -0.0012(4) 0.0093(4) 
In3 0.0179(4) 0.0172(4) 0.0267(5) -0.0007(4) -0.0012(4) 0.0093(4) 
Te1 0.0157(4) 0.0158(4) 0.0253(5) 0.0005(4) 0.0002(3) 0.0076(4) 
Te2 0.0170(4) 0.0177(4) 0.0231(4) 0.0001(4) 0.0004(4) 0.0096(3) 
Te3 0.0177(4) 0.0151(5) 0.0235(5) -0.0011(4) -0.0013(4) 0.0088(3) 
Te4 0.0156(4) 0.0148(4) 0.0267(5) 0.0026(4) 0.0019(4) 0.0074(3) 
 
_geom_special_details 
; 
 All esds (except the esd in the dihedral angle between two l.s. planes) 
 are estimated using the full covariance matrix.  The cell esds are taken 
 into account individually in the estimation of esds in distances, angles 
 and torsion angles; correlations between esds in cell parameters are only 
 used when they are defined by crystal symmetry.  An approximate (isotropic) 
 treatment of cell esds is used for estimating esds involving l.s. planes. 
; 
 
loop_ 
 _geom_bond_atom_site_label_1 
 _geom_bond_atom_site_label_2 
 _geom_bond_distance 
 _geom_bond_site_symmetry_2 
 _geom_bond_publ_flag 

Cd1 Te4 2.7933(12) . ? 
Cd1 Te1 2.7935(14) 8_545 ? 
Cd1 Te4 2.8061(12) 3 ? 
Cd1 Te2 2.8315(12) 5 ? 
Cd2 Te4 2.7708(13) 7_544 ? 
Cd2 Te3 2.7963(14) 6 ? 
Cd2 Te1 2.8038(11) . ? 
Cd2 Te3 2.8257(11) . ? 
Cd3 Te2 2.7769(12) . ? 
Cd3 Te1 2.7826(12) 3_665 ? 
Cd3 Te3 2.8104(11) . ? 
Cd3 Te2 2.8164(14) 5 ? 
Te1 In3 2.7826(12) 2_655 ? 
Te1 Cd3 2.7826(12) 2_655 ? 
Te1 In1 2.7935(14) 6_554 ? 
Te1 Cd1 2.7935(14) 6_554 ? 
Te2 In3 2.8164(14) 9_554 ? 
Te2 Cd3 2.8164(14) 9_554 ? 
Te2 Cd1 2.8315(12) 9_554 ? 
Te2 In1 2.8315(12) 9_554 ? 
Te3 In2 2.7963(14) 8_544 ? 
Te3 Cd2 2.7963(14) 8_544 ? 
Te4 In2 2.7708(13) 4_455 ? 
Te4 Cd2 2.7708(13) 4_455 ? 
Te4 Cd1 2.8061(12) 2 ? 
Te4 In1 2.8061(12) 2 ? 
 
loop_ 
 _geom_angle_atom_site_label_1 
 _geom_angle_atom_site_label_2 
 _geom_angle_atom_site_label_3 
 _geom_angle 
 _geom_angle_site_symmetry_1 
 _geom_angle_site_symmetry_3 
 _geom_angle_publ_flag 
Te4 Cs1 Te4 63.06(4) . 3 ? 
Te4 Cs1 Te4 63.06(4) . 2 ? 
Te4 Cs1 Te4 63.06(4) 3 2 ? 
Te4 Cs1 Te1 119.854(18) . 9_554 ? 
Te4 Cs1 Te1 176.17(4) 3 9_554 ? 
Te4 Cs1 Te1 120.168(16) 2 9_554 ? 
Te4 Cs1 Te1 120.168(16) . 8_544 ? 
Te4 Cs1 Te1 119.853(18) 3 8_544 ? 
Te4 Cs1 Te1 176.17(4) 2 8_544 ? 
Te1 Cs1 Te1 56.82(3) 9_554 8_544 ? 
Te4 Cs1 Te1 176.17(4) . 7_444 ? 
Te4 Cs1 Te1 120.167(16) 3 7_444 ? 
Te4 Cs1 Te1 119.853(18) 2 7_444 ? 
Te1 Cs1 Te1 56.82(3) 9_554 7_444 ? 
Te1 Cs1 Te1 56.82(3) 8_544 7_444 ? 
Te4 Cs1 Te2 56.92(2) . . ? 
Te4 Cs1 Te2 90.51(3) 3 . ? 
Te4 Cs1 Te2 119.96(5) 2 . ? 
Te1 Cs1 Te2 89.38(3) 9_554 . ? 
Te1 Cs1 Te2 63.25(2) 8_544 . ? 
Te1 Cs1 Te2 120.02(5) 7_444 . ? 
Te4 Cs1 Te2 90.51(3) . 2 ? 
Te4 Cs1 Te2 119.96(5) 3 2 ? 
Te4 Cs1 Te2 56.92(2) 2 2 ? 
Te1 Cs1 Te2 63.25(2) 9_554 2 ? 
Te1 Cs1 Te2 120.02(5) 8_544 2 ? 
Te1 Cs1 Te2 89.38(3) 7_444 2 ? 
Te2 Cs1 Te2 119.976(2) . 2 ? 
Te4 Cs1 Te2 119.96(5) . 3 ? 
Te4 Cs1 Te2 56.92(2) 3 3 ? 
Te4 Cs1 Te2 90.51(3) 2 3 ? 
Te1 Cs1 Te2 120.02(5) 9_554 3 ? 
Te1 Cs1 Te2 89.38(3) 8_544 3 ? 
Te1 Cs1 Te2 63.24(2) 7_444 3 ? 
Te2 Cs1 Te2 119.976(2) . 3 ? 
Te2 Cs1 Te2 119.976(2) 2 3 ? 
Te4 Cs1 Te3 120.62(5) . 3 ? 
Te4 Cs1 Te3 90.03(3) 3 3 ? 
Te4 Cs1 Te3 57.56(2) 2 3 ? 
Te1 Cs1 Te3 90.30(3) 9_554 3 ? 
Te1 Cs1 Te3 119.14(5) 8_544 3 ? 
Te1 Cs1 Te3 62.32(2) 7_444 3 ? 
Te2 Cs1 Te3 176.71(3) . 3 ? 
Te2 Cs1 Te3 57.08(2) 2 3 ? 
Te2 Cs1 Te3 62.91(2) 3 3 ? 
Te4 Cs1 Te3 90.03(3) . . ? 
Te4 Cs1 Te3 57.56(2) 3 . ? 
Te4 Cs1 Te3 120.62(5) 2 . ? 
Te1 Cs1 Te3 119.14(5) 9_554 . ? 
Te1 Cs1 Te3 62.32(2) 8_544 . ? 
Te1 Cs1 Te3 90.30(3) 7_444 . ? 
Te2 Cs1 Te3 62.91(2) . . ? 
Te2 Cs1 Te3 176.71(3) 2 . ? 
Te2 Cs1 Te3 57.08(2) 3 . ? 
Te3 Cs1 Te3 119.988(1) 3 . ? 
Te4 Cs1 Te3 57.56(2) . 2 ? 
Te4 Cs1 Te3 120.62(5) 3 2 ? 
Te4 Cs1 Te3 90.03(3) 2 2 ? 
Te1 Cs1 Te3 62.32(2) 9_554 2 ? 
Te1 Cs1 Te3 90.30(3) 8_544 2 ? 
Te1 Cs1 Te3 119.14(5) 7_444 2 ? 
Te2 Cs1 Te3 57.08(2) . 2 ? 
Te2 Cs1 Te3 62.91(2) 2 2 ? 
Te2 Cs1 Te3 176.71(3) 3 2 ? 
Te3 Cs1 Te3 119.988(1) 3 2 ? 
Te3 Cs1 Te3 119.988(1) . 2 ? 
Te4 Cd1 Te1 113.84(4) . 8_545 ? 
Te4 Cd1 Te4 101.48(5) . 3 ? 
Te1 Cd1 Te4 112.78(4) 8_545 3 ? 
Te4 Cd1 Te2 110.94(4) . 5 ? 
Te1 Cd1 Te2 112.70(4) 8_545 5 ? 
Te4 Cd1 Te2 104.15(5) 3 5 ? 
Te4 Cd2 Te3 120.61(5) 7_544 6 ? 
Te4 Cd2 Te1 113.41(4) 7_544 . ? 
Te3 Cd2 Te1 101.28(4) 6 . ? 
Te4 Cd2 Te3 106.80(4) 7_544 . ? 
Te3 Cd2 Te3 104.71(4) 6 . ? 
Te1 Cd2 Te3 109.42(4) . . ? 
Te2 Cd3 Te1 122.04(4) . 3_665 ? 
Te2 Cd3 Te3 103.01(4) . . ? 
Te1 Cd3 Te3 111.82(4) 3_665 . ? 
Te2 Cd3 Te2 112.30(4) . 5 ? 
Te1 Cd3 Te2 102.87(4) 3_665 5 ? 
Te3 Cd3 Te2 103.56(4) . 5 ? 
In3 Te1 Cd3 0.00(5) 2_655 2_655 ? 
In3 Te1 In1 102.22(4) 2_655 6_554 ? 
Cd3 Te1 In1 102.22(4) 2_655 6_554 ? 
In3 Te1 Cd1 102.22(4) 2_655 6_554 ? 
Cd3 Te1 Cd1 102.22(4) 2_655 6_554 ? 
In1 Te1 Cd1 0.00(4) 6_554 6_554 ? 
In3 Te1 Cd2 102.99(4) 2_655 . ? 
Cd3 Te1 Cd2 102.99(4) 2_655 . ? 
In1 Te1 Cd2 102.93(4) 6_554 . ? 
Cd1 Te1 Cd2 102.93(4) 6_554 . ? 
In3 Te1 Cs1 94.34(3) 2_655 4 ? 
Cd3 Te1 Cs1 94.34(3) 2_655 4 ? 
In1 Te1 Cs1 151.65(4) 6_554 4 ? 
Cd1 Te1 Cs1 151.65(4) 6_554 4 ? 
Cd2 Te1 Cs1 95.43(3) . 4 ? 
Cd3 Te2 In3 102.56(4) . 9_554 ? 
Cd3 Te2 Cd3 102.56(4) . 9_554 ? 
In3 Te2 Cd3 0.00(5) 9_554 9_554 ? 
Cd3 Te2 Cd1 102.52(4) . 9_554 ? 
In3 Te2 Cd1 105.12(4) 9_554 9_554 ? 
Cd3 Te2 Cd1 105.12(4) 9_554 9_554 ? 
Cd3 Te2 In1 102.52(4) . 9_554 ? 
In3 Te2 In1 105.12(4) 9_554 9_554 ? 
Cd3 Te2 In1 105.12(4) 9_554 9_554 ? 
Cd1 Te2 In1 0.00(5) 9_554 9_554 ? 
Cd3 Te2 Cs1 94.23(3) . . ? 
In3 Te2 Cs1 93.56(4) 9_554 . ? 
Cd3 Te2 Cs1 93.56(4) 9_554 . ? 
Cd1 Te2 Cs1 151.29(4) 9_554 . ? 
In1 Te2 Cs1 151.29(4) 9_554 . ? 
In2 Te3 Cd2 0.00(8) 8_544 8_544 ? 
In2 Te3 Cd3 104.11(4) 8_544 . ? 
Cd2 Te3 Cd3 104.11(4) 8_544 . ? 
In2 Te3 Cd2 102.87(4) 8_544 . ? 
Cd2 Te3 Cd2 102.87(4) 8_544 . ? 
Cd3 Te3 Cd2 105.97(4) . . ? 
In2 Te3 Cs1 94.87(5) 8_544 . ? 
Cd2 Te3 Cs1 94.87(5) 8_544 . ? 
Cd3 Te3 Cs1 93.33(4) . . ? 
Cd2 Te3 Cs1 149.41(3) . . ? 
In2 Te4 Cd2 0.00(5) 4_455 4_455 ? 
In2 Te4 Cd1 103.16(4) 4_455 . ? 
Cd2 Te4 Cd1 103.16(4) 4_455 . ? 
In2 Te4 Cd1 102.12(4) 4_455 2 ? 
Cd2 Te4 Cd1 102.12(4) 4_455 2 ? 
Cd1 Te4 Cd1 103.15(5) . 2 ? 
In2 Te4 In1 102.12(4) 4_455 2 ? 
Cd2 Te4 In1 102.12(4) 4_455 2 ? 
Cd1 Te4 In1 103.15(5) . 2 ? 
Cd1 Te4 In1 0.00(6) 2 2 ? 
In2 Te4 Cs1 151.82(4) 4_455 . ? 
Cd2 Te4 Cs1 151.82(4) 4_455 . ? 
Cd1 Te4 Cs1 94.78(3) . . ? 
Cd1 Te4 Cs1 94.58(3) 2 . ? 
In1 Te4 Cs1 94.58(3) 2 . ? 
 
_diffrn_measured_fraction_theta_max    0.988 
_diffrn_reflns_theta_full              27.50 
_diffrn_measured_fraction_theta_full   0.988 
_refine_diff_density_max    1.662 
_refine_diff_density_min   -2.082 
_refine_diff_density_rms    0.370 



#==END



 
data_CsZn4In5Te12 
 
_audit_creation_method            SHELXL-97 
_chemical_name_systematic 
; 
 ? 
; 
_chemical_name_common             ? 
_chemical_melting_point           ? 
_chemical_formula_moiety          'Cs In5 Te12 Zn4' 
_chemical_formula_sum 
 'Cs In5 Te12 Zn4' 
_chemical_formula_weight          2499.69 
 
loop_ 
 _atom_type_symbol 
 _atom_type_description 
 _atom_type_scat_dispersion_real 
 _atom_type_scat_dispersion_imag 
 _atom_type_scat_source 
 'Zn'  'Zn'   0.2839   1.4301 
 'International Tables Vol C Tables 4.2.6.8 and 6.1.1.4' 
 'In'  'In'  -0.7276   1.3100 
 'International Tables Vol C Tables 4.2.6.8 and 6.1.1.4' 
 'Te'  'Te'  -0.5308   1.6751 
 'International Tables Vol C Tables 4.2.6.8 and 6.1.1.4' 
 'Cs'  'Cs'  -0.3680   2.1192 
 'International Tables Vol C Tables 4.2.6.8 and 6.1.1.4' 
 
_symmetry_cell_setting            'trigonal' 
_symmetry_space_group_name_H-M    'R3'       
 
loop_ 
 _symmetry_equiv_pos_as_xyz 
 'x, y, z' 
 '-y, x-y, z' 
 '-x+y, -x, z' 
 'x+2/3, y+1/3, z+1/3' 
 '-y+2/3, x-y+1/3, z+1/3' 
 '-x+y+2/3, -x+1/3, z+1/3' 
 'x+1/3, y+2/3, z+2/3' 
 '-y+1/3, x-y+2/3, z+2/3' 
 '-x+y+1/3, -x+2/3, z+2/3' 
 
_cell_length_a                    15.585(4) 
_cell_length_b                    15.585(4) 
_cell_length_c                    10.591(4) 
_cell_angle_alpha                 90.00 
_cell_angle_beta                  90.00 
_cell_angle_gamma                 120.00 
_cell_volume                      2227.8(11) 
_cell_formula_units_Z             3 
_cell_measurement_temperature     293(2) 
_cell_measurement_reflns_used     1383    
_cell_measurement_theta_min       2.6136  
_cell_measurement_theta_max       27.4025 
 
_exptl_crystal_description        'Block' 
_exptl_crystal_colour             'Black' 
_exptl_crystal_size_max           0.1000  
_exptl_crystal_size_mid           0.0800  
_exptl_crystal_size_min           0.0600  
_exptl_crystal_density_meas       ? 
_exptl_crystal_density_diffrn     5.590 
_exptl_crystal_density_method     'not measured' 
_exptl_crystal_F_000              3132 
_exptl_absorpt_coefficient_mu     19.727 
_exptl_absorpt_correction_type    'Multi-scan' 
_exptl_absorpt_correction_T_min   0.8278 
_exptl_absorpt_correction_T_max   1.0000 
_exptl_absorpt_process_details    ? 
 
_exptl_special_details 
; 
 ? 
; 
 
_diffrn_ambient_temperature       293(2) 
_diffrn_radiation_wavelength      0.71073 
_diffrn_radiation_type            MoK\a 
_diffrn_radiation_source          'fine-focus sealed tube' 
_diffrn_radiation_monochromator   graphite 
_diffrn_measurement_device_type   Saturn70 
_diffrn_measurement_method        'CCD_Profile_fitting'  
_diffrn_detector_area_resol_mean  28.5714 
_diffrn_standards_number          ? 
_diffrn_standards_interval_count  ? 
_diffrn_standards_interval_time   ? 
_diffrn_standards_decay_%         ? 
_diffrn_reflns_number             1265 
_diffrn_reflns_av_R_equivalents   0.0142 
_diffrn_reflns_av_sigmaI/netI     0.0417 
_diffrn_reflns_limit_h_min        -9 
_diffrn_reflns_limit_h_max        18 
_diffrn_reflns_limit_k_min        -11 
_diffrn_reflns_limit_k_max        17 
_diffrn_reflns_limit_l_min        -12 
_diffrn_reflns_limit_l_max        5 
_diffrn_reflns_theta_min          3.58 
_diffrn_reflns_theta_max          25.00 
_reflns_number_total              1138 
_reflns_number_gt                 1089 
_reflns_threshold_expression      >2sigma(I) 
 
_computing_data_collection        'CrystalClear (Rigaku Inc., 2007)'
_computing_cell_refinement        'CrystalClear (Rigaku Inc., 2007)'
_computing_data_reduction         'CrystalClear (Rigaku Inc., 2007)'
_computing_structure_solution     'SHELXS-97 (Sheldrick, 1990)'      
_computing_structure_refinement   'SHELXL-97 (Sheldrick, 1997)'      
_computing_molecular_graphics     'Bruker SHELXTL'                  
_computing_publication_material   'Bruker SHELXTL'                  
 
_refine_special_details 
; 
 Refinement of F^2^ against ALL reflections.  The weighted R-factor wR and 
 goodness of fit S are based on F^2^, conventional R-factors R are based 
 on F, with F set to zero for negative F^2^. The threshold expression of 
 F^2^ > 2sigma(F^2^) is used only for calculating R-factors(gt) etc. and is 
 not relevant to the choice of reflections for refinement.  R-factors based 
 on F^2^ are statistically about twice as large as those based on F, and R- 
 factors based on ALL data will be even larger. 
; 
 
_refine_ls_structure_factor_coef  Fsqd  
_refine_ls_matrix_type            full 
_refine_ls_weighting_scheme       calc  
_refine_ls_weighting_details 
 'calc w=1/[\s^2^(Fo^2^)+(0.0375P)^2^+0.0000P] where P=(Fo^2^+2Fc^2^)/3' 
_atom_sites_solution_primary      direct 
_atom_sites_solution_secondary    difmap 
_atom_sites_solution_hydrogens    .
_refine_ls_hydrogen_treatment     . 
_refine_ls_extinction_method      none 
_refine_ls_extinction_coef        ? 
_refine_ls_abs_structure_details 
 'Flack H D (1983), Acta Cryst. A39, 876-881' 
_refine_ls_abs_structure_Flack    0.0(2) 
_refine_ls_number_reflns          1138 
_refine_ls_number_parameters      74 
_refine_ls_number_restraints      5 
_refine_ls_R_factor_all           0.0320 
_refine_ls_R_factor_gt            0.0306 
_refine_ls_wR_factor_ref          0.0665 
_refine_ls_wR_factor_gt           0.0660 
_refine_ls_goodness_of_fit_ref    1.027 
_refine_ls_restrained_S_all       1.025 
_refine_ls_shift/su_max           0.001 
_refine_ls_shift/su_mean          0.000 
 
loop_ 
 _atom_site_label 
 _atom_site_type_symbol 
 _atom_site_fract_x 
 _atom_site_fract_y 
 _atom_site_fract_z 
 _atom_site_U_iso_or_equiv 
 _atom_site_adp_type 
 _atom_site_occupancy 
 _atom_site_symmetry_multiplicity 
 _atom_site_calc_flag 
 _atom_site_refinement_flags 
 _atom_site_disorder_assembly 
 _atom_site_disorder_group 
Cs1 Cs 0.0000 0.0000 0.0001(3) 0.0378(5) Uani 1 3 d S . . 
Zn1 Zn 0.17833(9) 0.12769(8) 0.42028(14) 0.0184(4) Uani 0.532(2) 1 d P . . 
In1 In 0.17833(9) 0.12769(8) 0.42028(14) 0.0184(4) Uani 0.468(2) 1 d P . . 
Zn2 Zn 0.43302(11) 0.02049(11) 0.07929(13) 0.0184(5) Uani 0.480(3) 1 d P . . 
In2 In 0.43302(11) 0.02049(11) 0.07929(13) 0.0184(5) Uani 0.520(3) 1 d P . . 
Zn3 Zn 0.36004(10) 0.25969(9) 0.07984(13) 0.0168(3) Uani 0.321(3) 1 d P . . 
In3 In 0.36004(10) 0.25969(9) 0.07984(13) 0.0168(3) Uani 0.679(3) 1 d P . . 
Te1 Te 0.61586(8) 0.16689(8) 0.00854(11) 0.0191(3) Uani 1 1 d . . . 
Te2 Te 0.21554(9) 0.29851(7) 0.00552(10) 0.0176(2) Uani 1 1 d . . . 
Te3 Te 0.29443(8) 0.06821(8) 0.00160(11) 0.0179(3) Uani 1 1 d . . . 
Te4 Te 0.05024(7) 0.17558(9) 0.31277(9) 0.0183(3) Uani 1 1 d . . . 
 
loop_ 
 _atom_site_aniso_label 
 _atom_site_aniso_U_11 
 _atom_site_aniso_U_22 
 _atom_site_aniso_U_33 
 _atom_site_aniso_U_23 
 _atom_site_aniso_U_13 
 _atom_site_aniso_U_12 
Cs1 0.0396(7) 0.0396(7) 0.0340(11) 0.000 0.000 0.0198(3) 
Zn1 0.0197(7) 0.0173(7) 0.0173(7) -0.0008(6) -0.0011(6) 0.0086(6) 
In1 0.0197(7) 0.0173(7) 0.0173(7) -0.0008(6) -0.0011(6) 0.0086(6) 
Zn2 0.0199(7) 0.0192(7) 0.0175(8) -0.0002(5) -0.0006(5) 0.0108(5) 
In2 0.0199(7) 0.0192(7) 0.0175(8) -0.0002(5) -0.0006(5) 0.0108(5) 
Zn3 0.0188(6) 0.0179(6) 0.0148(6) -0.0003(5) 0.0006(5) 0.0099(5) 
In3 0.0188(6) 0.0179(6) 0.0148(6) -0.0003(5) 0.0006(5) 0.0099(5) 
Te1 0.0200(6) 0.0199(6) 0.0182(6) 0.0000(5) -0.0007(4) 0.0106(6) 
Te2 0.0174(5) 0.0181(5) 0.0173(5) 0.0003(5) -0.0006(5) 0.0088(4) 
Te3 0.0180(5) 0.0173(6) 0.0179(5) -0.0021(5) -0.0018(5) 0.0084(4) 
Te4 0.0186(5) 0.0186(5) 0.0174(6) 0.0010(6) -0.0001(4) 0.0091(4) 
 
_geom_special_details 
; 
 All esds (except the esd in the dihedral angle between two l.s. planes) 
 are estimated using the full covariance matrix.  The cell esds are taken 
 into account individually in the estimation of esds in distances, angles 
 and torsion angles; correlations between esds in cell parameters are only 
 used when they are defined by crystal symmetry.  An approximate (isotropic) 
 treatment of cell esds is used for estimating esds involving l.s. planes. 
; 
 
loop_ 
 _geom_bond_atom_site_label_1 
 _geom_bond_atom_site_label_2 
 _geom_bond_distance 
 _geom_bond_site_symmetry_2 
 _geom_bond_publ_flag 

Zn1 Te1 2.706(2) 8_545 ? 
Zn1 Te4 2.7071(17) . ? 
Zn1 Te4 2.7163(17) 3 ? 
Zn1 Te2 2.7378(17) 5 ? 
Zn2 Te4 2.700(2) 7_544 ? 
Zn2 Te1 2.7177(18) . ? 
Zn2 Te3 2.719(2) 6 ? 
Zn2 Te3 2.7388(17) . ? 
Zn3 Te1 2.7238(17) 3_665 ? 
Zn3 Te2 2.7239(16) . ? 
Zn3 Te2 2.753(2) 5 ? 
Zn3 Te3 2.7544(16) . ? 
Te1 In1 2.706(2) 6_554 ? 
Te1 Zn1 2.706(2) 6_554 ? 
Te1 In3 2.7238(17) 2_655 ? 
Te1 Zn3 2.7238(17) 2_655 ? 
Te2 In1 2.7378(17) 9_554 ? 
Te2 Zn1 2.7378(17) 9_554 ? 
Te2 In3 2.753(2) 9_554 ? 
Te2 Zn3 2.753(2) 9_554 ? 
Te3 In2 2.719(2) 8_544 ? 
Te3 Zn2 2.719(2) 8_544 ? 
Te4 In2 2.700(2) 4_455 ? 
Te4 Zn2 2.700(2) 4_455 ? 
Te4 Zn1 2.7163(17) 2 ? 
Te4 In1 2.7163(17) 2 ? 
 
loop_ 
 _geom_angle_atom_site_label_1 
 _geom_angle_atom_site_label_2 
 _geom_angle_atom_site_label_3 
 _geom_angle 
 _geom_angle_site_symmetry_1 
 _geom_angle_site_symmetry_3 
 _geom_angle_publ_flag 
Te4 Cs1 Te4 61.84(5) . 3 ? 
Te4 Cs1 Te4 61.84(5) . 2 ? 
Te4 Cs1 Te4 61.84(5) 3 2 ? 
Te4 Cs1 Te1 119.87(3) . 9_554 ? 
Te4 Cs1 Te1 177.31(4) 3 9_554 ? 
Te4 Cs1 Te1 120.66(3) 2 9_554 ? 
Te4 Cs1 Te1 120.66(3) . 8_544 ? 
Te4 Cs1 Te1 119.87(3) 3 8_544 ? 
Te4 Cs1 Te1 177.31(4) 2 8_544 ? 
Te1 Cs1 Te1 57.59(4) 9_554 8_544 ? 
Te4 Cs1 Te1 177.31(4) . 7_444 ? 
Te4 Cs1 Te1 120.66(3) 3 7_444 ? 
Te4 Cs1 Te1 119.87(3) 2 7_444 ? 
Te1 Cs1 Te1 57.59(4) 9_554 7_444 ? 
Te1 Cs1 Te1 57.59(4) 8_544 7_444 ? 
Te4 Cs1 Te2 57.74(3) . . ? 
Te4 Cs1 Te2 90.39(4) 3 . ? 
Te4 Cs1 Te2 119.56(6) 2 . ? 
Te1 Cs1 Te2 89.02(4) 9_554 . ? 
Te1 Cs1 Te2 62.93(3) 8_544 . ? 
Te1 Cs1 Te2 120.45(6) 7_444 . ? 
Te4 Cs1 Te2 119.56(6) . 3 ? 
Te4 Cs1 Te2 57.74(3) 3 3 ? 
Te4 Cs1 Te2 90.39(4) 2 3 ? 
Te1 Cs1 Te2 120.45(6) 9_554 3 ? 
Te1 Cs1 Te2 89.02(4) 8_544 3 ? 
Te1 Cs1 Te2 62.92(3) 7_444 3 ? 
Te2 Cs1 Te2 119.981(2) . 3 ? 
Te4 Cs1 Te2 90.39(4) . 2 ? 
Te4 Cs1 Te2 119.56(6) 3 2 ? 
Te4 Cs1 Te2 57.74(3) 2 2 ? 
Te1 Cs1 Te2 62.93(3) 9_554 2 ? 
Te1 Cs1 Te2 120.45(6) 8_544 2 ? 
Te1 Cs1 Te2 89.02(4) 7_444 2 ? 
Te2 Cs1 Te2 119.981(2) . 2 ? 
Te2 Cs1 Te2 119.981(2) 3 2 ? 
Te4 Cs1 Te3 120.33(6) . 3 ? 
Te4 Cs1 Te3 90.46(4) 3 3 ? 
Te4 Cs1 Te3 58.50(3) 2 3 ? 
Te1 Cs1 Te3 90.25(4) 9_554 3 ? 
Te1 Cs1 Te3 118.97(5) 8_544 3 ? 
Te1 Cs1 Te3 61.38(3) 7_444 3 ? 
Te2 Cs1 Te3 176.99(3) . 3 ? 
Te2 Cs1 Te3 62.83(3) 3 3 ? 
Te2 Cs1 Te3 57.17(3) 2 3 ? 
Te4 Cs1 Te3 90.46(4) . . ? 
Te4 Cs1 Te3 58.50(3) 3 . ? 
Te4 Cs1 Te3 120.33(6) 2 . ? 
Te1 Cs1 Te3 118.97(5) 9_554 . ? 
Te1 Cs1 Te3 61.38(3) 8_544 . ? 
Te1 Cs1 Te3 90.25(4) 7_444 . ? 
Te2 Cs1 Te3 62.83(3) . . ? 
Te2 Cs1 Te3 57.17(3) 3 . ? 
Te2 Cs1 Te3 176.99(3) 2 . ? 
Te3 Cs1 Te3 119.999(1) 3 . ? 
Te4 Cs1 Te3 58.50(3) . 2 ? 
Te4 Cs1 Te3 120.33(6) 3 2 ? 
Te4 Cs1 Te3 90.46(4) 2 2 ? 
Te1 Cs1 Te3 61.38(3) 9_554 2 ? 
Te1 Cs1 Te3 90.25(4) 8_544 2 ? 
Te1 Cs1 Te3 118.97(5) 7_444 2 ? 
Te2 Cs1 Te3 57.17(3) . 2 ? 
Te2 Cs1 Te3 176.99(3) 3 2 ? 
Te2 Cs1 Te3 62.83(3) 2 2 ? 
Te3 Cs1 Te3 119.998(1) 3 2 ? 
Te3 Cs1 Te3 119.998(1) . 2 ? 
Te1 Zn1 Te4 113.86(6) 8_545 . ? 
Te1 Zn1 Te4 111.84(6) 8_545 3 ? 
Te4 Zn1 Te4 102.45(7) . 3 ? 
Te1 Zn1 Te2 112.04(6) 8_545 5 ? 
Te4 Zn1 Te2 111.30(5) . 5 ? 
Te4 Zn1 Te2 104.58(7) 3 5 ? 
Te4 Zn2 Te1 113.32(6) 7_544 . ? 
Te4 Zn2 Te3 118.29(6) 7_544 6 ? 
Te1 Zn2 Te3 102.39(6) . 6 ? 
Te4 Zn2 Te3 107.67(6) 7_544 . ? 
Te1 Zn2 Te3 109.11(5) . . ? 
Te3 Zn2 Te3 105.56(6) 6 . ? 
Te1 Zn3 Te2 119.49(5) 3_665 . ? 
Te1 Zn3 Te2 104.54(6) 3_665 5 ? 
Te2 Zn3 Te2 111.37(6) . 5 ? 
Te1 Zn3 Te3 111.69(6) 3_665 . ? 
Te2 Zn3 Te3 104.68(6) . . ? 
Te2 Zn3 Te3 104.15(5) 5 . ? 
In1 Te1 Zn1 0.00(6) 6_554 6_554 ? 
In1 Te1 Zn2 104.72(5) 6_554 . ? 
Zn1 Te1 Zn2 104.72(5) 6_554 . ? 
In1 Te1 In3 103.02(6) 6_554 2_655 ? 
Zn1 Te1 In3 103.02(6) 6_554 2_655 ? 
Zn2 Te1 In3 104.55(5) . 2_655 ? 
In1 Te1 Zn3 103.02(6) 6_554 2_655 ? 
Zn1 Te1 Zn3 103.02(6) 6_554 2_655 ? 
Zn2 Te1 Zn3 104.55(5) . 2_655 ? 
In3 Te1 Zn3 0.00(7) 2_655 2_655 ? 
In1 Te1 Cs1 149.94(5) 6_554 4 ? 
Zn1 Te1 Cs1 149.94(5) 6_554 4 ? 
Zn2 Te1 Cs1 95.09(5) . 4 ? 
In3 Te1 Cs1 93.36(5) 2_655 4 ? 
Zn3 Te1 Cs1 93.36(5) 2_655 4 ? 
Zn3 Te2 In1 103.72(5) . 9_554 ? 
Zn3 Te2 Zn1 103.72(5) . 9_554 ? 
In1 Te2 Zn1 0.00(8) 9_554 9_554 ? 
Zn3 Te2 In3 102.97(5) . 9_554 ? 
In1 Te2 In3 106.77(6) 9_554 9_554 ? 
Zn1 Te2 In3 106.77(6) 9_554 9_554 ? 
Zn3 Te2 Zn3 102.97(5) . 9_554 ? 
In1 Te2 Zn3 106.77(6) 9_554 9_554 ? 
Zn1 Te2 Zn3 106.77(6) 9_554 9_554 ? 
In3 Te2 Zn3 0.000(5) 9_554 9_554 ? 
Zn3 Te2 Cs1 92.90(3) . . ? 
In1 Te2 Cs1 150.64(5) 9_554 . ? 
Zn1 Te2 Cs1 150.64(5) 9_554 . ? 
In3 Te2 Cs1 92.49(5) 9_554 . ? 
Zn3 Te2 Cs1 92.49(5) 9_554 . ? 
In2 Te3 Zn2 0.00(12) 8_544 8_544 ? 
In2 Te3 Zn2 104.09(6) 8_544 . ? 
Zn2 Te3 Zn2 104.09(6) 8_544 . ? 
In2 Te3 Zn3 105.13(6) 8_544 . ? 
Zn2 Te3 Zn3 105.13(6) 8_544 . ? 
Zn2 Te3 Zn3 106.73(5) . . ? 
In2 Te3 Cs1 94.61(6) 8_544 . ? 
Zn2 Te3 Cs1 94.61(6) 8_544 . ? 
Zn2 Te3 Cs1 148.28(5) . . ? 
Zn3 Te3 Cs1 92.44(5) . . ? 
In2 Te4 Zn2 0.00(8) 4_455 4_455 ? 
In2 Te4 Zn1 104.39(6) 4_455 . ? 
Zn2 Te4 Zn1 104.39(6) 4_455 . ? 
In2 Te4 Zn1 103.73(6) 4_455 2 ? 
Zn2 Te4 Zn1 103.73(6) 4_455 2 ? 
Zn1 Te4 Zn1 104.79(7) . 2 ? 
In2 Te4 In1 103.73(6) 4_455 2 ? 
Zn2 Te4 In1 103.73(6) 4_455 2 ? 
Zn1 Te4 In1 104.79(7) . 2 ? 
Zn1 Te4 In1 0.00(8) 2 2 ? 
In2 Te4 Cs1 149.45(5) 4_455 . ? 
Zn2 Te4 Cs1 149.45(5) 4_455 . ? 
Zn1 Te4 Cs1 94.39(5) . . ? 
Zn1 Te4 Cs1 94.25(5) 2 . ? 
In1 Te4 Cs1 94.25(5) 2 . ? 
 
_diffrn_measured_fraction_theta_max    0.984 
_diffrn_reflns_theta_full              25.00 
_diffrn_measured_fraction_theta_full   0.984 
_refine_diff_density_max    3.648 
_refine_diff_density_min   -1.432 
_refine_diff_density_rms    0.333 


#==END


 
data_CsMn4In5Te12 
 
_audit_creation_method            SHELXL-97 
_chemical_name_systematic 
; 
 ? 
; 
_chemical_name_common             ? 
_chemical_melting_point           ? 
_chemical_formula_moiety          'Cs In5 Mn4 Te12' 
_chemical_formula_sum 
 'Cs In5 Mn4 Te12' 
_chemical_formula_weight          2457.97 
 
loop_ 
 _atom_type_symbol 
 _atom_type_description 
 _atom_type_scat_dispersion_real 
 _atom_type_scat_dispersion_imag 
 _atom_type_scat_source 
 'Mn'  'Mn'   0.3368   0.7283 
 'International Tables Vol C Tables 4.2.6.8 and 6.1.1.4' 
 'In'  'In'  -0.7276   1.3100 
 'International Tables Vol C Tables 4.2.6.8 and 6.1.1.4' 
 'Te'  'Te'  -0.5308   1.6751 
 'International Tables Vol C Tables 4.2.6.8 and 6.1.1.4' 
 'Cs'  'Cs'  -0.3680   2.1192 
 'International Tables Vol C Tables 4.2.6.8 and 6.1.1.4' 
 
_symmetry_cell_setting            'trigonal' 
_symmetry_space_group_name_H-M    'R3'       
 
loop_ 
 _symmetry_equiv_pos_as_xyz 
 'x, y, z' 
 '-y, x-y, z' 
 '-x+y, -x, z' 
 'x+2/3, y+1/3, z+1/3' 
 '-y+2/3, x-y+1/3, z+1/3' 
 '-x+y+2/3, -x+1/3, z+1/3' 
 'x+1/3, y+2/3, z+2/3' 
 '-y+1/3, x-y+2/3, z+2/3' 
 '-x+y+1/3, -x+2/3, z+2/3' 
 
_cell_length_a                    15.770(3) 
_cell_length_b                    15.770(3) 
_cell_length_c                    10.721(3) 
_cell_angle_alpha                 90.00 
_cell_angle_beta                  90.00 
_cell_angle_gamma                 120.00 
_cell_volume                      2309.1(10) 
_cell_formula_units_Z             3 
_cell_measurement_temperature     293(2) 
_cell_measurement_reflns_used     2026    
_cell_measurement_theta_min       2.5830  
_cell_measurement_theta_max       27.4758 
 
_exptl_crystal_description        'Block' 
_exptl_crystal_colour             'Black' 
_exptl_crystal_size_max           0.1000 
_exptl_crystal_size_mid           0.0900 
_exptl_crystal_size_min           0.0800 
_exptl_crystal_density_meas       ? 
_exptl_crystal_density_diffrn     5.303 
_exptl_crystal_density_method     'not measured' 
_exptl_crystal_F_000              3072 
_exptl_absorpt_coefficient_mu     17.556 
_exptl_absorpt_correction_type    'Multi-scan' 
_exptl_absorpt_correction_T_min   0.6877 
_exptl_absorpt_correction_T_max   1.0000 
_exptl_absorpt_process_details    ? 
 
_exptl_special_details 
; 
 ? 
; 
 
_diffrn_ambient_temperature       293(2) 
_diffrn_radiation_wavelength      0.71073 
_diffrn_radiation_type            MoK\a 
_diffrn_radiation_source          'fine-focus sealed tube' 
_diffrn_radiation_monochromator   graphite 
_diffrn_measurement_device_type   Saturn70              
_diffrn_measurement_method        'CCD_Profile_fitting' 
_diffrn_detector_area_resol_mean  28.5714               
_diffrn_standards_number          ? 
_diffrn_standards_interval_count  ? 
_diffrn_standards_interval_time   ? 
_diffrn_standards_decay_%         ? 
_diffrn_reflns_number             2285 
_diffrn_reflns_av_R_equivalents   0.0198 
_diffrn_reflns_av_sigmaI/netI     0.0383 
_diffrn_reflns_limit_h_min        -8 
_diffrn_reflns_limit_h_max        19 
_diffrn_reflns_limit_k_min        -20 
_diffrn_reflns_limit_k_max        4 
_diffrn_reflns_limit_l_min        -13 
_diffrn_reflns_limit_l_max        10 
_diffrn_reflns_theta_min          3.54 
_diffrn_reflns_theta_max          27.49 
_reflns_number_total              1755 
_reflns_number_gt                 1677 
_reflns_threshold_expression      >2sigma(I) 
 
_computing_data_collection        'CrystalClear (Rigaku Inc., 2007)'
_computing_cell_refinement        'CrystalClear (Rigaku Inc., 2007)'
_computing_data_reduction         'CrystalClear (Rigaku Inc., 2007)'
_computing_structure_solution     'SHELXS-97 (Sheldrick, 1990)'      
_computing_structure_refinement   'SHELXL-97 (Sheldrick, 1997)'      
_computing_molecular_graphics     'Bruker SHELXTL'                  
_computing_publication_material   'Bruker SHELXTL'                  
 
_refine_special_details 
; 
 Refinement of F^2^ against ALL reflections.  The weighted R-factor wR and 
 goodness of fit S are based on F^2^, conventional R-factors R are based 
 on F, with F set to zero for negative F^2^. The threshold expression of 
 F^2^ > 2sigma(F^2^) is used only for calculating R-factors(gt) etc. and is 
 not relevant to the choice of reflections for refinement.  R-factors based 
 on F^2^ are statistically about twice as large as those based on F, and R- 
 factors based on ALL data will be even larger. 
; 
 
_refine_ls_structure_factor_coef  Fsqd  
_refine_ls_matrix_type            full 
_refine_ls_weighting_scheme       calc  
_refine_ls_weighting_details 
 'calc w=1/[\s^2^(Fo^2^)+(0.0229P)^2^+0.0000P] where P=(Fo^2^+2Fc^2^)/3' 
_atom_sites_solution_primary      direct 
_atom_sites_solution_secondary    difmap 
_atom_sites_solution_hydrogens    .
_refine_ls_hydrogen_treatment     . 
_refine_ls_extinction_method      none 
_refine_ls_extinction_coef        ? 
_refine_ls_abs_structure_details 
 'Flack H D (1983), Acta Cryst. A39, 876-881' 
_refine_ls_abs_structure_Flack    -0.08(11) 
_refine_ls_number_reflns          1755 
_refine_ls_number_parameters      73 
_refine_ls_number_restraints      5 
_refine_ls_R_factor_all           0.0282 
_refine_ls_R_factor_gt            0.0265 
_refine_ls_wR_factor_ref          0.0559 
_refine_ls_wR_factor_gt           0.0552 
_refine_ls_goodness_of_fit_ref    1.022 
_refine_ls_restrained_S_all       1.020 
_refine_ls_shift/su_max           0.000 
_refine_ls_shift/su_mean          0.000 
 
loop_ 
 _atom_site_label 
 _atom_site_type_symbol 
 _atom_site_fract_x 
 _atom_site_fract_y 
 _atom_site_fract_z 
 _atom_site_U_iso_or_equiv 
 _atom_site_adp_type 
 _atom_site_occupancy 
 _atom_site_symmetry_multiplicity 
 _atom_site_calc_flag 
 _atom_site_refinement_flags 
 _atom_site_disorder_assembly 
 _atom_site_disorder_group 
Cs1 Cs 0.0000 0.0000 0.99966(18) 0.0420(3) Uani 1 3 d S . . 
Mn1 Mn 0.17797(7) 0.12704(6) 0.41967(10) 0.0202(3) Uani 0.604(2) 1 d P . . 
In1 In 0.17797(7) 0.12704(6) 0.41967(10) 0.0202(3) Uani 0.396(2) 1 d P . . 
Mn2 Mn 0.43352(7) 0.02059(7) 0.07984(9) 0.0190(3) Uani 0.480(3) 1 d P . . 
In2 In 0.43352(7) 0.02059(7) 0.07984(9) 0.0190(3) Uani 0.520(3) 1 d P . . 
Mn3 Mn 0.36018(6) 0.25966(6) 0.07968(8) 0.0190(2) Uani 0.250(2) 1 d P . . 
In3 In 0.36018(6) 0.25966(6) 0.07968(8) 0.0190(2) Uani 0.750(2) 1 d P . . 
Te1 Te 0.61688(5) 0.16877(5) 0.00954(7) 0.01830(18) Uani 1 1 d . . . 
Te2 Te 0.21384(5) 0.29661(4) 0.00575(6) 0.01734(16) Uani 1 1 d . . . 
Te3 Te 0.29281(5) 0.06761(5) 0.00279(6) 0.01706(16) Uani 1 1 d . . . 
Te4 Te 0.05071(4) 0.17554(5) 0.31037(6) 0.01868(17) Uani 1 1 d . . . 
 
loop_ 
 _atom_site_aniso_label 
 _atom_site_aniso_U_11 
 _atom_site_aniso_U_22 
 _atom_site_aniso_U_33 
 _atom_site_aniso_U_23 
 _atom_site_aniso_U_13 
 _atom_site_aniso_U_12 
Cs1 0.0418(5) 0.0418(5) 0.0424(8) 0.000 0.000 0.0209(2) 
Mn1 0.0202(5) 0.0187(5) 0.0219(5) -0.0001(4) -0.0005(4) 0.0100(4) 
In1 0.0202(5) 0.0187(5) 0.0219(5) -0.0001(4) -0.0005(4) 0.0100(4) 
Mn2 0.0184(5) 0.0174(5) 0.0222(5) 0.0022(3) 0.0006(3) 0.0097(4) 
In2 0.0184(5) 0.0174(5) 0.0222(5) 0.0022(3) 0.0006(3) 0.0097(4) 
Mn3 0.0202(4) 0.0182(4) 0.0196(4) -0.0005(3) -0.0002(3) 0.0104(3) 
In3 0.0202(4) 0.0182(4) 0.0196(4) -0.0005(3) -0.0002(3) 0.0104(3) 
Te1 0.0177(4) 0.0174(4) 0.0196(4) 0.0007(3) -0.0002(2) 0.0087(3) 
Te2 0.0180(3) 0.0174(3) 0.0180(3) 0.0005(3) -0.0001(3) 0.0099(3) 
Te3 0.0174(3) 0.0150(4) 0.0199(4) -0.0011(3) -0.0017(3) 0.0089(3) 
Te4 0.0171(3) 0.0167(4) 0.0226(4) 0.0003(3) 0.0009(3) 0.0087(3) 
 
_geom_special_details 
; 
 All esds (except the esd in the dihedral angle between two l.s. planes) 
 are estimated using the full covariance matrix.  The cell esds are taken 
 into account individually in the estimation of esds in distances, angles 
 and torsion angles; correlations between esds in cell parameters are only 
 used when they are defined by crystal symmetry.  An approximate (isotropic) 
 treatment of cell esds is used for estimating esds involving l.s. planes. 
; 
 
loop_ 
 _geom_bond_atom_site_label_1 
 _geom_bond_atom_site_label_2 
 _geom_bond_distance 
 _geom_bond_site_symmetry_2 
 _geom_bond_publ_flag 

Mn1 Te4 2.7424(12) . ? 
Mn1 Te4 2.7539(12) 3 ? 
Mn1 Te1 2.7578(15) 8_545 ? 
Mn1 Te2 2.7957(12) 5 ? 
Mn2 Te4 2.7464(13) 7_544 ? 
Mn2 Te3 2.7613(15) 6 ? 
Mn2 Te1 2.7627(12) . ? 
Mn2 Te3 2.7933(12) . ? 
Mn3 Te1 2.7586(11) 3_665 ? 
Mn3 Te2 2.7638(11) . ? 
Mn3 Te3 2.7863(11) . ? 
Mn3 Te2 2.7931(14) 5 ? 
Te1 In1 2.7578(15) 6_554 ? 
Te1 Mn1 2.7578(15) 6_554 ? 
Te1 In3 2.7586(11) 2_655 ? 
Te1 Mn3 2.7586(11) 2_655 ? 
Te2 In3 2.7931(14) 9_554 ? 
Te2 Mn3 2.7931(14) 9_554 ? 
Te2 Mn1 2.7957(12) 9_554 ? 
Te2 In1 2.7957(12) 9_554 ? 
Te3 In2 2.7613(15) 8_544 ? 
Te3 Mn2 2.7613(15) 8_544 ?  
Te4 In2 2.7464(13) 4_455 ? 
Te4 Mn2 2.7464(13) 4_455 ? 
Te4 Mn1 2.7539(12) 2 ? 
Te4 In1 2.7539(12) 2 ? 
 
loop_ 
 _geom_angle_atom_site_label_1 
 _geom_angle_atom_site_label_2 
 _geom_angle_atom_site_label_3 
 _geom_angle 
 _geom_angle_site_symmetry_1 
 _geom_angle_site_symmetry_3 
 _geom_angle_publ_flag 
Te4 Cs1 Te4 62.06(3) 1_556 3_556 ? 
Te4 Cs1 Te4 62.06(3) 1_556 2_556 ? 
Te4 Cs1 Te4 62.06(3) 3_556 2_556 ? 
Te4 Cs1 Te1 120.01(2) 1_556 9 ? 
Te4 Cs1 Te1 177.04(3) 3_556 9 ? 
Te4 Cs1 Te1 120.58(2) 2_556 9 ? 
Te4 Cs1 Te1 120.58(2) 1_556 8_545 ? 
Te4 Cs1 Te1 120.01(2) 3_556 8_545 ? 
Te4 Cs1 Te1 177.04(3) 2_556 8_545 ? 
Te1 Cs1 Te1 57.29(3) 9 8_545 ? 
Te4 Cs1 Te1 177.04(3) 1_556 7_445 ? 
Te4 Cs1 Te1 120.58(2) 3_556 7_445 ? 
Te4 Cs1 Te1 120.01(2) 2_556 7_445 ? 
Te1 Cs1 Te1 57.29(3) 9 7_445 ? 
Te1 Cs1 Te1 57.29(3) 8_545 7_445 ? 
Te4 Cs1 Te2 57.454(18) 1_556 1_556 ? 
Te4 Cs1 Te2 90.46(2) 3_556 1_556 ? 
Te4 Cs1 Te2 119.49(4) 2_556 1_556 ? 
Te1 Cs1 Te2 89.17(3) 9 1_556 ? 
Te1 Cs1 Te2 63.126(18) 8_545 1_556 ? 
Te1 Cs1 Te2 120.36(4) 7_445 1_556 ? 
Te4 Cs1 Te2 90.46(2) 1_556 2_556 ? 
Te4 Cs1 Te2 119.49(4) 3_556 2_556 ? 
Te4 Cs1 Te2 57.455(18) 2_556 2_556 ? 
Te1 Cs1 Te2 63.126(18) 9 2_556 ? 
Te1 Cs1 Te2 120.36(4) 8_545 2_556 ? 
Te1 Cs1 Te2 89.17(3) 7_445 2_556 ? 
Te2 Cs1 Te2 119.976(1) 1_556 2_556 ? 
Te4 Cs1 Te2 119.49(4) 1_556 3_556 ? 
Te4 Cs1 Te2 57.455(18) 3_556 3_556 ? 
Te4 Cs1 Te2 90.46(2) 2_556 3_556 ? 
Te1 Cs1 Te2 120.36(4) 9 3_556 ? 
Te1 Cs1 Te2 89.17(3) 8_545 3_556 ? 
Te1 Cs1 Te2 63.124(18) 7_445 3_556 ? 
Te2 Cs1 Te2 119.976(1) 1_556 3_556 ? 
Te2 Cs1 Te2 119.976(2) 2_556 3_556 ? 
Te4 Cs1 Te3 120.26(4) 1_556 3_556 ? 
Te4 Cs1 Te3 90.20(3) 3_556 3_556 ? 
Te4 Cs1 Te3 58.210(18) 2_556 3_556 ? 
Te1 Cs1 Te3 90.32(2) 9 3_556 ? 
Te1 Cs1 Te3 119.11(4) 8_545 3_556 ? 
Te1 Cs1 Te3 61.82(2) 7_445 3_556 ? 
Te2 Cs1 Te3 176.76(2) 1_556 3_556 ? 
Te2 Cs1 Te3 57.048(17) 2_556 3_556 ? 
Te2 Cs1 Te3 62.946(17) 3_556 3_556 ? 
Te4 Cs1 Te3 90.20(3) 1_556 1_556 ? 
Te4 Cs1 Te3 58.210(18) 3_556 1_556 ? 
Te4 Cs1 Te3 120.26(4) 2_556 1_556 ? 
Te1 Cs1 Te3 119.11(4) 9 1_556 ? 
Te1 Cs1 Te3 61.82(2) 8_545 1_556 ? 
Te1 Cs1 Te3 90.32(2) 7_445 1_556 ? 
Te2 Cs1 Te3 62.946(17) 1_556 1_556 ? 
Te2 Cs1 Te3 176.76(2) 2_556 1_556 ? 
Te2 Cs1 Te3 57.048(17) 3_556 1_556 ? 
Te3 Cs1 Te3 119.994(1) 3_556 1_556 ? 
Te4 Cs1 Te3 58.210(18) 1_556 2_556 ? 
Te4 Cs1 Te3 120.26(4) 3_556 2_556 ? 
Te4 Cs1 Te3 90.20(3) 2_556 2_556 ? 
Te1 Cs1 Te3 61.82(2) 9 2_556 ? 
Te1 Cs1 Te3 90.32(2) 8_545 2_556 ? 
Te1 Cs1 Te3 119.12(4) 7_445 2_556 ? 
Te2 Cs1 Te3 57.048(17) 1_556 2_556 ? 
Te2 Cs1 Te3 62.946(17) 2_556 2_556 ? 
Te2 Cs1 Te3 176.76(2) 3_556 2_556 ? 
Te3 Cs1 Te3 119.994(1) 3_556 2_556 ? 
Te3 Cs1 Te3 119.994(1) 1_556 2_556 ? 
Te4 Mn1 Te4 102.08(5) . 3 ? 
Te4 Mn1 Te1 113.87(4) . 8_545 ? 
Te4 Mn1 Te1 112.29(4) 3 8_545 ? 
Te4 Mn1 Te2 111.27(4) . 5 ? 
Te4 Mn1 Te2 104.48(4) 3 5 ? 
Te1 Mn1 Te2 112.05(4) 8_545 5 ? 
Te4 Mn2 Te3 119.30(4) 7_544 6 ? 
Te4 Mn2 Te1 113.46(4) 7_544 . ? 
Te3 Mn2 Te1 101.91(4) 6 . ? 
Te4 Mn2 Te3 107.26(4) 7_544 . ? 
Te3 Mn2 Te3 105.12(4) 6 . ? 
Te1 Mn2 Te3 109.22(4) . . ? 
Te1 Mn3 Te2 120.60(3) 3_665 . ? 
Te1 Mn3 Te3 111.97(3) 3_665 . ? 
Te2 Mn3 Te3 103.86(3) . . ? 
Te1 Mn3 Te2 103.78(4) 3_665 5 ? 
Te2 Mn3 Te2 111.73(4) . 5 ? 
Te3 Mn3 Te2 103.86(3) . 5 ? 
In1 Te1 Mn1 0.00(4) 6_554 6_554 ? 
In1 Te1 In3 102.76(4) 6_554 2_655 ? 
Mn1 Te1 In3 102.76(4) 6_554 2_655 ? 
In1 Te1 Mn3 102.76(4) 6_554 2_655 ? 
Mn1 Te1 Mn3 102.76(4) 6_554 2_655 ? 
In3 Te1 Mn3 0.00(4) 2_655 2_655 ? 
In1 Te1 Mn2 104.08(4) 6_554 . ? 
Mn1 Te1 Mn2 104.08(4) 6_554 . ? 
In3 Te1 Mn2 103.89(3) 2_655 . ? 
Mn3 Te1 Mn2 103.89(3) 2_655 . ? 
In1 Te1 Cs1 150.49(4) 6_554 4_554 ? 
Mn1 Te1 Cs1 150.49(4) 6_554 4_554 ? 
In3 Te1 Cs1 93.80(3) 2_655 4_554 ? 
Mn3 Te1 Cs1 93.80(3) 2_655 4_554 ? 
Mn2 Te1 Cs1 95.24(3) . 4_554 ? 
Mn3 Te2 In3 102.70(3) . 9_554 ? 
Mn3 Te2 Mn3 102.70(3) . 9_554 ? 
In3 Te2 Mn3 0.00(4) 9_554 9_554 ? 
Mn3 Te2 Mn1 103.20(3) . 9_554 ? 
In3 Te2 Mn1 105.95(4) 9_554 9_554 ? 
Mn3 Te2 Mn1 105.95(4) 9_554 9_554 ? 
Mn3 Te2 In1 103.20(3) . 9_554 ? 
In3 Te2 In1 105.95(4) 9_554 9_554 ? 
Mn3 Te2 In1 105.95(4) 9_554 9_554 ? 
Mn1 Te2 In1 0.00(6) 9_554 9_554 ? 
Mn3 Te2 Cs1 93.44(2) . 1_554 ? 
In3 Te2 Cs1 92.91(3) 9_554 1_554 ? 
Mn3 Te2 Cs1 92.91(3) 9_554 1_554 ? 
Mn1 Te2 Cs1 151.12(3) 9_554 1_554 ? 
In1 Te2 Cs1 151.12(3) 9_554 1_554 ? 
In2 Te3 Mn2 0.00(8) 8_544 8_544 ? 
In2 Te3 Mn3 104.57(3) 8_544 . ? 
Mn2 Te3 Mn3 104.57(3) 8_544 . ? 
In2 Te3 Mn2 103.54(4) 8_544 . ? 
Mn2 Te3 Mn2 103.54(4) 8_544 . ? 
Mn3 Te3 Mn2 106.22(3) . . ? 
In2 Te3 Cs1 94.75(4) 8_544 1_554 ? 
Mn2 Te3 Cs1 94.75(4) 8_544 1_554 ? 
Mn3 Te3 Cs1 92.97(3) . 1_554 ? 
Mn2 Te3 Cs1 148.87(3) . 1_554 ? 
Mn1 Te4 In2 103.97(4) . 4_455 ? 
Mn1 Te4 Mn2 103.97(4) . 4_455 ? 
In2 Te4 Mn2 0.00(5) 4_455 4_455 ? 
Mn1 Te4 Mn1 104.18(5) . 2 ? 
In2 Te4 Mn1 103.10(4) 4_455 2 ? 
Mn2 Te4 Mn1 103.10(4) 4_455 2 ? 
Mn1 Te4 In1 104.18(5) . 2 ? 
In2 Te4 In1 103.10(4) 4_455 2 ? 
Mn2 Te4 In1 103.10(4) 4_455 2 ? 
Mn1 Te4 In1 0.00(6) 2 2 ? 
Mn1 Te4 Cs1 94.64(3) . 1_554 ? 
In2 Te4 Cs1 150.18(3) 4_455 1_554 ? 
Mn2 Te4 Cs1 150.18(3) 4_455 1_554 ? 
Mn1 Te4 Cs1 94.46(3) 2 1_554 ? 
In1 Te4 Cs1 94.46(3) 2 1_554 ? 
 
_diffrn_measured_fraction_theta_max    0.986 
_diffrn_reflns_theta_full              27.49 
_diffrn_measured_fraction_theta_full   0.986 
_refine_diff_density_max    1.183 
_refine_diff_density_min   -1.459 
_refine_diff_density_rms    0.335 
        
        
        
                                          