 
data_R3-2_b
 
_audit_creation_method            'SHELXL-2014/7'
_shelx_SHELXL_version_number      '2014/7'
_chemical_name_systematic         ?
_chemical_name_common             ?
_chemical_melting_point           ?
_chemical_formula_moiety          ?
_chemical_formula_sum
 'Li2 O6 Te Zr' 
_chemical_formula_weight          328.70

loop_
 _atom_type_symbol
 _atom_type_description
 _atom_type_scat_dispersion_real
 _atom_type_scat_dispersion_imag
 _atom_type_scat_source
 'Li'  'Li'  -0.0003   0.0001
 'International Tables Vol C Tables 4.2.6.8 and 6.1.1.4'
 'O'  'O'   0.0106   0.0060
 'International Tables Vol C Tables 4.2.6.8 and 6.1.1.4'
 'Te'  'Te'  -0.5308   1.6751
 'International Tables Vol C Tables 4.2.6.8 and 6.1.1.4'
 'Zr'  'Zr'  -2.9673   0.5597
 'International Tables Vol C Tables 4.2.6.8 and 6.1.1.4'
 
_space_group_crystal_system       trigonal
_space_group_IT_number            146
_space_group_name_H-M_alt         'R 3 :H'
_space_group_name_Hall            'R 3'
 
_shelx_space_group_comment
;
The symmetry employed for this shelxl refinement is uniquely defined
by the following loop, which should always be used as a source of
symmetry information in preference to the above space-group names.
They are only intended as comments.
;
 
loop_
 _space_group_symop_operation_xyz
 'x, y, z'
 '-y, x-y, z'
 '-x+y, -x, z'
 'x+2/3, y+1/3, z+1/3'
 '-y+2/3, x-y+1/3, z+1/3'
 '-x+y+2/3, -x+1/3, z+1/3'
 'x+1/3, y+2/3, z+2/3'
 '-y+1/3, x-y+2/3, z+2/3'
 '-x+y+1/3, -x+2/3, z+2/3'
 
_cell_length_a                    5.175(2)
_cell_length_b                    5.175(2)
_cell_length_c                    13.857(6)
_cell_angle_alpha                 90
_cell_angle_beta                  90
_cell_angle_gamma                 120
_cell_volume                      321.4(3)
_cell_formula_units_Z             3
_cell_measurement_temperature     296(2)
_cell_measurement_reflns_used     1113
_cell_measurement_theta_min       4.41
_cell_measurement_theta_max       26.95
 
_exptl_crystal_description        Block
_exptl_crystal_colour             Colorless
_exptl_crystal_density_meas       ?
_exptl_crystal_density_method     ?
_exptl_crystal_density_diffrn     5.095          
_exptl_crystal_F_000              438
_exptl_transmission_factor_min    0.3569 
_exptl_transmission_factor_max    0.4912
_exptl_crystal_size_max           0.133
_exptl_crystal_size_mid           0.116
_exptl_crystal_size_min           0.109
_exptl_absorpt_coefficient_mu     9.176
_shelx_estimated_absorpt_T_min    0.375
_shelx_estimated_absorpt_T_max    0.435
_exptl_absorpt_correction_type    'Multi-Scan'
_exptl_absorpt_correction_T_min   ?
_exptl_absorpt_correction_T_max   ?
_exptl_absorpt_process_details    ?
_exptl_absorpt_special_details    ?
_diffrn_ambient_temperature       296(2)
_diffrn_radiation_wavelength      0.71073
_diffrn_radiation_type            MoK\a
_diffrn_source                    ?
_diffrn_measurement_device_type   'Bruker APEX-II CCD'
_diffrn_measurement_method        '\f and \w scans'
_diffrn_detector_area_resol_mean  ?
_diffrn_reflns_number             1223
_diffrn_reflns_av_unetI/netI      0.0178
_diffrn_reflns_av_R_equivalents   0.0209
_diffrn_reflns_limit_h_min        -6
_diffrn_reflns_limit_h_max        6
_diffrn_reflns_limit_k_min        -6
_diffrn_reflns_limit_k_max        6
_diffrn_reflns_limit_l_min        -17
_diffrn_reflns_limit_l_max        17
_diffrn_reflns_theta_min          4.412
_diffrn_reflns_theta_max          26.952
_diffrn_reflns_theta_full         25.242
_diffrn_measured_fraction_theta_max   1.000
_diffrn_measured_fraction_theta_full  1.000
_diffrn_reflns_Laue_measured_fraction_max    1.000
_diffrn_reflns_Laue_measured_fraction_full   1.000
_diffrn_reflns_point_group_measured_fraction_max   1.000
_diffrn_reflns_point_group_measured_fraction_full  1.000
_reflns_number_total              320
_reflns_number_gt                 320
_reflns_threshold_expression      'I > 2\s(I)'
_reflns_Friedel_coverage          1.000
_reflns_Friedel_fraction_max      1.000
_reflns_Friedel_fraction_full     1.000
 
_reflns_special_details
;
 Reflections were merged by SHELXL according to the crystal
 class for the calculation of statistics and refinement.
 
 _reflns_Friedel_fraction is defined as the number of unique
 Friedel pairs measured divided by the number that would be
 possible theoretically, ignoring centric projections and
 systematic absences.
;
 
_computing_data_collection        ?
_computing_cell_refinement        ?
_computing_data_reduction         ?
_computing_structure_solution     ?
_computing_structure_refinement 'SHELXL-2014/7 (Sheldrick, 2014)'
_computing_molecular_graphics     ?
_computing_publication_material   ?
_refine_special_details
;
 Refined as a 2-component inversion twin.
;
_refine_ls_structure_factor_coef  Fsqd
_refine_ls_matrix_type            full
_refine_ls_weighting_scheme       calc
_refine_ls_weighting_details
'w=1/[\s^2^(Fo^2^)+(0.0197P)^2^+1.2676P] where P=(Fo^2^+2Fc^2^)/3'
_atom_sites_solution_primary      ?
_atom_sites_solution_secondary    ?
_atom_sites_solution_hydrogens    .
_refine_ls_hydrogen_treatment     undef
_refine_ls_extinction_method      'SHELXL-2014/7 (Sheldrick 2014'
_refine_ls_extinction_coef        0.292(13)
_refine_ls_extinction_expression
 'Fc^*^=kFc[1+0.001xFc^2^\l^3^/sin(2\q)]^-1/4^'
_refine_ls_abs_structure_details
;
 Refined as an inversion twin.
;
_refine_ls_abs_structure_Flack    0.29(5)
_chemical_absolute_configuration  ?
_refine_ls_number_reflns          320
_refine_ls_number_parameters      25
_refine_ls_number_restraints      1
_refine_ls_R_factor_all           0.0140
_refine_ls_R_factor_gt            0.0140
_refine_ls_wR_factor_ref          0.0357
_refine_ls_wR_factor_gt           0.0357
_refine_ls_goodness_of_fit_ref    1.091
_refine_ls_restrained_S_all       1.089
_refine_ls_shift/su_max           0.000
_refine_ls_shift/su_mean          0.000
 
loop_
 _atom_site_label
 _atom_site_type_symbol
 _atom_site_symmetry_multiplicity
 _atom_site_Wyckoff_symbol
 _atom_site_fract_x
 _atom_site_fract_y
 _atom_site_fract_z
 _atom_site_U_iso_or_equiv
 _atom_site_adp_type
 _atom_site_occupancy
 _atom_site_site_symmetry_order  
 _atom_site_calc_flag
 _atom_site_refinement_flags_posn
 _atom_site_refinement_flags_adp
 _atom_site_refinement_flags_occupancy
 _atom_site_disorder_assembly
 _atom_site_disorder_group
Te1 Te 3 a 0.3333 0.6667 0.54571(2) 0.0029(3) Uani 1 3 d S T P . .
Zr1 Zr  3 a 0.0000 0.0000 0.37593(13) 0.0029(3) Uani 1 3 d S T P . .
O1 O 9 b 0.3585(18) 0.050(2) 0.2951(5) 0.0107(12) Uani 1 1 d . . . . .
Li1 Li 3 a 0.6667 0.3333 0.443(3) 0.027(8) Uani 1 3 d S T P . .
O2 O  9 b 0.295(2) 0.3406(16) 0.4702(4) 0.0029(3) Uani 1 1 d . . . . .
Li2 Li 3 a 0.0000 0.0000 0.594(2) 0.013(6) Uani 1 3 d S T P . .
 
loop_
 _atom_site_aniso_label
 _atom_site_aniso_U_11
 _atom_site_aniso_U_22
 _atom_site_aniso_U_33
 _atom_site_aniso_U_23
 _atom_site_aniso_U_13
 _atom_site_aniso_U_12
Te1 0.0039(3) 0.0039(3) 0.0007(4) 0.000 0.000 0.00196(15)
Zr1 0.0039(3) 0.0039(3) 0.0007(4) 0.000 0.000 0.00196(15)
O1 0.011(2) 0.010(2) 0.009(2) 0.0059(16) 0.0073(16) 0.0043(16)
Li1 0.013(9) 0.013(9) 0.05(3) 0.000 0.000 0.007(4)
O2 0.0039(3) 0.0039(3) 0.0007(4) 0.000 0.000 0.00196(15)
Li2 0.011(7) 0.011(7) 0.016(13) 0.000 0.000 0.006(3)
 
_geom_special_details
;
 All esds (except the esd in the dihedral angle between two l.s. planes)
 are estimated using the full covariance matrix.  The cell esds are taken
 into account individually in the estimation of esds in distances, angles
 and torsion angles; correlations between esds in cell parameters are only
 used when they are defined by crystal symmetry.  An approximate (isotropic)
 treatment of cell esds is used for estimating esds involving l.s. planes.
;
 
loop_
 _geom_bond_atom_site_label_1
 _geom_bond_atom_site_label_2
 _geom_bond_distance
 _geom_bond_site_symmetry_2
 _geom_bond_publ_flag
Te1 O2 1.909(7) . ?
Te1 O2 1.909(7) 3_565 ?
Te1 O2 1.909(7) 2_665 ?
Te1 O1 1.915(8) 5 ?
Te1 O1 1.916(8) 4_455 ?
Te1 O1 1.916(8) 6_565 ?
Te1 Li2 3.062(8) 1_565 ?
Te1 Li2 3.062(8) 1_665 ?
Te1 Li2 3.062(8) . ?
Te1 Li1 3.20(4) 4_455 ?
Te1 Li1 3.309(19) 1_455 ?
Te1 Li1 3.309(19) 1_565 ?
Zr1 O1 2.070(8) . ?
Zr1 O1 2.070(8) 3 ?
Zr1 O1 2.070(8) 2 ?
Zr1 O2 2.110(7) 3 ?
Zr1 O2 2.110(7) 2 ?
Zr1 O2 2.110(7) . ?
Zr1 Li2 3.02(3) . ?
Zr1 Li1 3.129(13) 1_445 ?
Zr1 Li1 3.129(13) . ?
Zr1 Li1 3.129(13) 1_455 ?
Zr1 Li2 3.389(16) 7_444 ?
Zr1 Li2 3.389(16) 7_554 ?
O1 Te1 1.916(8) 7_544 ?
O1 Li2 1.979(13) 7_544 ?
O1 Li1 2.56(4) . ?
Li1 O2 1.980(13) 2_655 ?
Li1 O2 1.980(13) 3_665 ?
Li1 O2 1.980(13) . ?
Li1 O1 2.56(4) 2_655 ?
Li1 O1 2.56(4) 3_665 ?
Li1 Zr1 3.129(13) 1_655 ?
Li1 Zr1 3.129(13) 1_665 ?
Li1 Te1 3.20(4) 7_544 ?
Li1 Te1 3.309(19) 1_655 ?
Li1 Te1 3.309(19) 1_545 ?
O2 Li2 2.38(3) . ?
Li2 O1 1.979(13) 6 ?
Li2 O1 1.979(13) 5_445 ?
Li2 O1 1.979(13) 4_455 ?
Li2 O2 2.38(3) 2 ?
Li2 O2 2.38(3) 3 ?
Li2 Te1 3.062(8) 1_445 ?
Li2 Te1 3.062(8) 1_545 ?
Li2 Zr1 3.389(16) 4 ?
Li2 Zr1 3.389(16) 4_445 ?
 
loop_
 _geom_angle_atom_site_label_1
 _geom_angle_atom_site_label_2
 _geom_angle_atom_site_label_3
 _geom_angle
 _geom_angle_site_symmetry_1
 _geom_angle_site_symmetry_3
 _geom_angle_publ_flag
O2 Te1 O2 92.8(2) . 3_565 ?
O2 Te1 O2 92.8(2) . 2_665 ?
O2 Te1 O2 92.8(2) 3_565 2_665 ?
O2 Te1 O1 90.8(4) . 5 ?
O2 Te1 O1 176.1(4) 3_565 5 ?
O2 Te1 O1 88.4(4) 2_665 5 ?
O2 Te1 O1 88.4(4) . 4_455 ?
O2 Te1 O1 90.8(4) 3_565 4_455 ?
O2 Te1 O1 176.1(4) 2_665 4_455 ?
O1 Te1 O1 87.9(3) 5 4_455 ?
O2 Te1 O1 176.1(4) . 6_565 ?
O2 Te1 O1 88.4(4) 3_565 6_565 ?
O2 Te1 O1 90.8(4) 2_665 6_565 ?
O1 Te1 O1 87.9(3) 5 6_565 ?
O1 Te1 O1 87.9(3) 4_455 6_565 ?
O2 Te1 Li2 141.1(5) . 1_565 ?
O2 Te1 Li2 51.1(6) 3_565 1_565 ?
O2 Te1 Li2 102.0(4) 2_665 1_565 ?
O1 Te1 Li2 125.0(6) 5 1_565 ?
O1 Te1 Li2 79.2(5) 4_455 1_565 ?
O1 Te1 Li2 38.9(5) 6_565 1_565 ?
O2 Te1 Li2 102.0(4) . 1_665 ?
O2 Te1 Li2 141.1(5) 3_565 1_665 ?
O2 Te1 Li2 51.1(6) 2_665 1_665 ?
O1 Te1 Li2 38.9(5) 5 1_665 ?
O1 Te1 Li2 125.0(6) 4_455 1_665 ?
O1 Te1 Li2 79.2(5) 6_565 1_665 ?
Li2 Te1 Li2 115.4(4) 1_565 1_665 ?
O2 Te1 Li2 51.1(6) . . ?
O2 Te1 Li2 102.0(4) 3_565 . ?
O2 Te1 Li2 141.1(5) 2_665 . ?
O1 Te1 Li2 79.2(5) 5 . ?
O1 Te1 Li2 38.9(5) 4_455 . ?
O1 Te1 Li2 125.0(6) 6_565 . ?
Li2 Te1 Li2 115.4(4) 1_565 . ?
Li2 Te1 Li2 115.4(4) 1_665 . ?
O2 Te1 Li1 123.24(18) . 4_455 ?
O2 Te1 Li1 123.24(18) 3_565 4_455 ?
O2 Te1 Li1 123.24(18) 2_665 4_455 ?
O1 Te1 Li1 53.3(2) 5 4_455 ?
O1 Te1 Li1 53.3(2) 4_455 4_455 ?
O1 Te1 Li1 53.3(2) 6_565 4_455 ?
Li2 Te1 Li1 77.4(6) 1_565 4_455 ?
Li2 Te1 Li1 77.4(6) 1_665 4_455 ?
Li2 Te1 Li1 77.4(6) . 4_455 ?
O2 Te1 Li1 71.5(5) . 1_455 ?
O2 Te1 Li1 32.3(4) 3_565 1_455 ?
O2 Te1 Li1 117.1(7) 2_665 1_455 ?
O1 Te1 Li1 148.9(5) 5 1_455 ?
O1 Te1 Li1 66.8(7) 4_455 1_455 ?
O1 Te1 Li1 108.0(5) 6_565 1_455 ?
Li2 Te1 Li1 69.7(4) 1_565 1_455 ?
Li2 Te1 Li1 167.1(10) 1_665 1_455 ?
Li2 Te1 Li1 69.7(4) . 1_455 ?
Li1 Te1 Li1 115.5(7) 4_455 1_455 ?
O2 Te1 Li1 117.1(7) . 1_565 ?
O2 Te1 Li1 71.5(5) 3_565 1_565 ?
O2 Te1 Li1 32.3(4) 2_665 1_565 ?
O1 Te1 Li1 108.0(5) 5 1_565 ?
O1 Te1 Li1 148.9(5) 4_455 1_565 ?
O1 Te1 Li1 66.8(7) 6_565 1_565 ?
Li2 Te1 Li1 69.7(4) 1_565 1_565 ?
Li2 Te1 Li1 69.7(4) 1_665 1_565 ?
Li2 Te1 Li1 167.1(10) . 1_565 ?
Li1 Te1 Li1 115.5(7) 4_455 1_565 ?
Li1 Te1 Li1 102.9(8) 1_455 1_565 ?
O1 Zr1 O1 93.5(3) . 3 ?
O1 Zr1 O1 93.5(3) . 2 ?
O1 Zr1 O1 93.5(3) 3 2 ?
O1 Zr1 O2 90.4(4) . 3 ?
O1 Zr1 O2 90.2(4) 3 3 ?
O1 Zr1 O2 174.5(4) 2 3 ?
O1 Zr1 O2 174.5(4) . 2 ?
O1 Zr1 O2 90.4(4) 3 2 ?
O1 Zr1 O2 90.2(4) 2 2 ?
O2 Zr1 O2 85.7(3) 3 2 ?
O1 Zr1 O2 90.2(4) . . ?
O1 Zr1 O2 174.5(4) 3 . ?
O1 Zr1 O2 90.4(4) 2 . ?
O2 Zr1 O2 85.7(3) 3 . ?
O2 Zr1 O2 85.7(3) 2 . ?
O1 Zr1 Li2 122.8(2) . . ?
O1 Zr1 Li2 122.8(2) 3 . ?
O1 Zr1 Li2 122.8(2) 2 . ?
O2 Zr1 Li2 51.75(19) 3 . ?
O2 Zr1 Li2 51.75(19) 2 . ?
O2 Zr1 Li2 51.7(2) . . ?
O1 Zr1 Li1 105.3(5) . 1_445 ?
O1 Zr1 Li1 54.5(7) 3 1_445 ?
O1 Zr1 Li1 143.0(5) 2 1_445 ?
O2 Zr1 Li1 38.6(6) 3 1_445 ?
O2 Zr1 Li1 73.9(5) 2 1_445 ?
O2 Zr1 Li1 120.5(7) . 1_445 ?
Li2 Zr1 Li1 72.7(8) . 1_445 ?
O1 Zr1 Li1 54.5(7) . . ?
O1 Zr1 Li1 143.0(5) 3 . ?
O1 Zr1 Li1 105.3(5) 2 . ?
O2 Zr1 Li1 73.9(5) 3 . ?
O2 Zr1 Li1 120.5(7) 2 . ?
O2 Zr1 Li1 38.6(6) . . ?
Li2 Zr1 Li1 72.7(8) . . ?
Li1 Zr1 Li1 111.6(7) 1_445 . ?
O1 Zr1 Li1 143.0(5) . 1_455 ?
O1 Zr1 Li1 105.3(5) 3 1_455 ?
O1 Zr1 Li1 54.5(7) 2 1_455 ?
O2 Zr1 Li1 120.5(7) 3 1_455 ?
O2 Zr1 Li1 38.6(6) 2 1_455 ?
O2 Zr1 Li1 73.9(5) . 1_455 ?
Li2 Zr1 Li1 72.7(8) . 1_455 ?
Li1 Zr1 Li1 111.6(7) 1_445 1_455 ?
Li1 Zr1 Li1 111.6(7) . 1_455 ?
O1 Zr1 Li2 115.4(5) . 7_444 ?
O1 Zr1 Li2 32.4(3) 3 7_444 ?
O1 Zr1 Li2 69.5(4) 2 7_444 ?
O2 Zr1 Li2 112.2(4) 3 7_444 ?
O2 Zr1 Li2 69.8(5) 2 7_444 ?
O2 Zr1 Li2 147.6(3) . 7_444 ?
Li2 Zr1 Li2 118.1(5) . 7_444 ?
Li1 Zr1 Li2 73.7(5) 1_445 7_444 ?
Li1 Zr1 Li2 169.1(10) . 7_444 ?
Li1 Zr1 Li2 73.7(5) 1_455 7_444 ?
O1 Zr1 Li2 69.5(4) . 7_554 ?
O1 Zr1 Li2 115.4(5) 3 7_554 ?
O1 Zr1 Li2 32.4(3) 2 7_554 ?
O2 Zr1 Li2 147.6(3) 3 7_554 ?
O2 Zr1 Li2 112.2(4) 2 7_554 ?
O2 Zr1 Li2 69.8(5) . 7_554 ?
Li2 Zr1 Li2 118.1(5) . 7_554 ?
Li1 Zr1 Li2 169.1(10) 1_445 7_554 ?
Li1 Zr1 Li2 73.7(5) . 7_554 ?
Li1 Zr1 Li2 73.7(5) 1_455 7_554 ?
Li2 Zr1 Li2 99.6(6) 7_444 7_554 ?
Te1 O1 Li2 103.6(8) 7_544 7_544 ?
Te1 O1 Zr1 140.4(6) 7_544 . ?
Li2 O1 Zr1 113.6(6) 7_544 . ?
Te1 O1 Li1 89.9(7) 7_544 . ?
Li2 O1 Li1 118.5(9) 7_544 . ?
Zr1 O1 Li1 84.3(5) . . ?
O2 Li1 O2 116.5(8) 2_655 3_665 ?
O2 Li1 O2 116.5(8) 2_655 . ?
O2 Li1 O2 116.5(8) 3_665 . ?
O2 Li1 O1 83.5(8) 2_655 . ?
O2 Li1 O1 137.7(18) 3_665 . ?
O2 Li1 O1 80.2(8) . . ?
O2 Li1 O1 80.2(8) 2_655 2_655 ?
O2 Li1 O1 83.5(8) 3_665 2_655 ?
O2 Li1 O1 137.7(18) . 2_655 ?
O1 Li1 O1 62.5(10) . 2_655 ?
O2 Li1 O1 137.7(18) 2_655 3_665 ?
O2 Li1 O1 80.2(8) 3_665 3_665 ?
O2 Li1 O1 83.5(8) . 3_665 ?
O1 Li1 O1 62.5(10) . 3_665 ?
O1 Li1 O1 62.5(10) 2_655 3_665 ?
O2 Li1 Zr1 92.3(3) 2_655 . ?
O2 Li1 Zr1 151.2(5) 3_665 . ?
O2 Li1 Zr1 41.6(4) . . ?
O1 Li1 Zr1 41.2(3) . . ?
O1 Li1 Zr1 103.6(12) 2_655 . ?
O1 Li1 Zr1 78.6(8) 3_665 . ?
O2 Li1 Zr1 41.6(4) 2_655 1_655 ?
O2 Li1 Zr1 92.3(3) 3_665 1_655 ?
O2 Li1 Zr1 151.2(5) . 1_655 ?
O1 Li1 Zr1 78.6(8) . 1_655 ?
O1 Li1 Zr1 41.2(3) 2_655 1_655 ?
O1 Li1 Zr1 103.6(12) 3_665 1_655 ?
Zr1 Li1 Zr1 111.6(7) . 1_655 ?
O2 Li1 Zr1 151.2(5) 2_655 1_665 ?
O2 Li1 Zr1 41.6(4) 3_665 1_665 ?
O2 Li1 Zr1 92.3(3) . 1_665 ?
O1 Li1 Zr1 103.6(12) . 1_665 ?
O1 Li1 Zr1 78.6(8) 2_655 1_665 ?
O1 Li1 Zr1 41.2(3) 3_665 1_665 ?
Zr1 Li1 Zr1 111.6(7) . 1_665 ?
Zr1 Li1 Zr1 111.6(7) 1_655 1_665 ?
O2 Li1 Te1 101.0(12) 2_655 7_544 ?
O2 Li1 Te1 101.0(12) 3_665 7_544 ?
O2 Li1 Te1 101.0(12) . 7_544 ?
O1 Li1 Te1 36.8(6) . 7_544 ?
O1 Li1 Te1 36.8(6) 2_655 7_544 ?
O1 Li1 Te1 36.8(6) 3_665 7_544 ?
Zr1 Li1 Te1 72.7(8) . 7_544 ?
Zr1 Li1 Te1 72.7(8) 1_655 7_544 ?
Zr1 Li1 Te1 72.7(8) 1_665 7_544 ?
O2 Li1 Te1 86.2(7) 2_655 1_655 ?
O2 Li1 Te1 31.0(4) 3_665 1_655 ?
O2 Li1 Te1 132.7(15) . 1_655 ?
O1 Li1 Te1 146.2(10) . 1_655 ?
O1 Li1 Te1 84.0(2) 2_655 1_655 ?
O1 Li1 Te1 107.8(4) 3_665 1_655 ?
Zr1 Li1 Te1 171.8(15) . 1_655 ?
Zr1 Li1 Te1 72.35(10) 1_655 1_655 ?
Zr1 Li1 Te1 72.35(10) 1_665 1_655 ?
Te1 Li1 Te1 115.5(7) 7_544 1_655 ?
O2 Li1 Te1 31.0(4) 2_655 1_545 ?
O2 Li1 Te1 132.7(15) 3_665 1_545 ?
O2 Li1 Te1 86.2(7) . 1_545 ?
O1 Li1 Te1 84.0(2) . 1_545 ?
O1 Li1 Te1 107.8(4) 2_655 1_545 ?
O1 Li1 Te1 146.2(10) 3_665 1_545 ?
Zr1 Li1 Te1 72.35(10) . 1_545 ?
Zr1 Li1 Te1 72.35(10) 1_655 1_545 ?
Zr1 Li1 Te1 171.8(15) 1_665 1_545 ?
Te1 Li1 Te1 115.5(7) 7_544 1_545 ?
Te1 Li1 Te1 102.9(8) 1_655 1_545 ?
Te1 O2 Li1 116.6(7) . . ?
Te1 O2 Zr1 142.2(5) . . ?
Li1 O2 Zr1 99.8(9) . . ?
Te1 O2 Li2 90.3(5) . . ?
Li1 O2 Li2 113.0(9) . . ?
Zr1 O2 Li2 84.2(6) . . ?
O1 Li2 O1 114.4(8) 6 5_445 ?
O1 Li2 O1 114.4(8) 6 4_455 ?
O1 Li2 O1 114.4(8) 5_445 4_455 ?
O1 Li2 O2 87.1(6) 6 . ?
O1 Li2 O2 146.8(15) 5_445 . ?
O1 Li2 O2 74.7(5) 4_455 . ?
O1 Li2 O2 146.8(15) 6 2 ?
O1 Li2 O2 74.7(5) 5_445 2 ?
O1 Li2 O2 87.1(6) 4_455 2 ?
O2 Li2 O2 74.0(9) . 2 ?
O1 Li2 O2 74.7(5) 6 3 ?
O1 Li2 O2 87.1(6) 5_445 3 ?
O1 Li2 O2 146.8(15) 4_455 3 ?
O2 Li2 O2 74.0(9) . 3 ?
O2 Li2 O2 74.0(9) 2 3 ?
O1 Li2 Zr1 104.0(10) 6 . ?
O1 Li2 Zr1 104.0(10) 5_445 . ?
O1 Li2 Zr1 104.0(10) 4_455 . ?
O2 Li2 Zr1 44.0(6) . . ?
O2 Li2 Zr1 44.0(6) 2 . ?
O2 Li2 Zr1 44.0(6) 3 . ?
O1 Li2 Te1 147.5(2) 6 1_445 ?
O1 Li2 Te1 37.4(3) 5_445 1_445 ?
O1 Li2 Te1 96.2(2) 4_455 1_445 ?
O2 Li2 Te1 112.6(10) . 1_445 ?
O2 Li2 Te1 38.57(19) 2 1_445 ?
O2 Li2 Te1 85.8(6) 3 1_445 ?
Zr1 Li2 Te1 77.4(6) . 1_445 ?
O1 Li2 Te1 96.2(3) 6 . ?
O1 Li2 Te1 147.5(2) 5_445 . ?
O1 Li2 Te1 37.4(3) 4_455 . ?
O2 Li2 Te1 38.57(19) . . ?
O2 Li2 Te1 85.8(6) 2 . ?
O2 Li2 Te1 112.6(10) 3 . ?
Zr1 Li2 Te1 77.4(6) . . ?
Te1 Li2 Te1 115.4(4) 1_445 . ?
O1 Li2 Te1 37.5(3) 6 1_545 ?
O1 Li2 Te1 96.2(2) 5_445 1_545 ?
O1 Li2 Te1 147.5(2) 4_455 1_545 ?
O2 Li2 Te1 85.8(6) . 1_545 ?
O2 Li2 Te1 112.6(10) 2 1_545 ?
O2 Li2 Te1 38.57(19) 3 1_545 ?
Zr1 Li2 Te1 77.4(6) . 1_545 ?
Te1 Li2 Te1 115.4(4) 1_445 1_545 ?
Te1 Li2 Te1 115.4(4) . 1_545 ?
O1 Li2 Zr1 34.1(4) 6 4 ?
O1 Li2 Zr1 130.6(13) 5_445 4 ?
O1 Li2 Zr1 80.5(6) 4_455 4 ?
O2 Li2 Zr1 81.41(19) . 4 ?
O2 Li2 Zr1 154.7(8) 2 4 ?
O2 Li2 Zr1 105.3(2) 3 4 ?
Zr1 Li2 Zr1 118.1(5) . 4 ?
Te1 Li2 Zr1 164.5(11) 1_445 4 ?
Te1 Li2 Zr1 70.89(14) . 4 ?
Te1 Li2 Zr1 70.89(14) 1_545 4 ?
O1 Li2 Zr1 80.5(6) 6 4_445 ?
O1 Li2 Zr1 34.1(4) 5_445 4_445 ?
O1 Li2 Zr1 130.6(13) 4_455 4_445 ?
O2 Li2 Zr1 154.7(8) . 4_445 ?
O2 Li2 Zr1 105.3(2) 2 4_445 ?
O2 Li2 Zr1 81.4(2) 3 4_445 ?
Zr1 Li2 Zr1 118.1(5) . 4_445 ?
Te1 Li2 Zr1 70.89(14) 1_445 4_445 ?
Te1 Li2 Zr1 164.5(11) . 4_445 ?
Te1 Li2 Zr1 70.89(14) 1_545 4_445 ?
Zr1 Li2 Zr1 99.6(6) 4 4_445 ?
 
_refine_diff_density_max    0.664
_refine_diff_density_min   -1.005
_refine_diff_density_rms    0.152

_shelx_res_file
;

    R3-2_b.res created by SHELXL-2014/7


TITL R3-2_b.res in R3
REM Old TITL R3-2 in R3

REM SHELXT solution in R3
REM R1 0.142,  Rweak 0.031,  Alpha 0.031,  Orientation as input
REM Flack x =  0.442 ( 0.019 ) from Parsons' quotients
REM Formula found by SHELXT:  Li2 O3 Te Zr

CELL  0.71073   5.1750   5.1750  13.8569   90.000   90.000  120.000
ZERR    3.000   0.0023   0.0023   0.0061    0.000    0.000    0.000
LATT -3
SYMM -Y, X-Y, Z
SYMM -X+Y, -X, Z
SFAC LI O TE ZR
UNIT 6 18 3 3
TEMP 23(2)
SIZE 0.116 0.133 0.109
L.S. 10
BOND
LIST 4
ACTA
EADP TE1 ZR1
EADP O2 TE1
FMAP 2
PLAN 20
TWIN
WGHT    0.019657    1.267600
EXTI    0.291590
BASF   0.29494
FVAR       0.83486
TE1   3    0.333333    0.666667    0.545710    10.33333    0.00392    0.00392 =
         0.00072    0.00000    0.00000    0.00196
ZR1   4    0.000000    0.000000    0.375925    10.33333    0.00392    0.00392 =
         0.00072    0.00000    0.00000    0.00196
O1    2    0.358536    0.049757    0.295068    11.00000    0.01127    0.01022 =
         0.00908    0.00592    0.00731    0.00428
LI1   1    0.666667    0.333333    0.443022    10.33333    0.01327    0.01327 =
         0.05323    0.00000    0.00000    0.00664
O2    2    0.294743    0.340643    0.470203    11.00000    0.00392    0.00392 =
         0.00072    0.00000    0.00000    0.00196
LI2   1    0.000000    0.000000    0.593903    10.33333    0.01124    0.01124 =
         0.01616    0.00000    0.00000    0.00562
HKLF 4

REM  R3-2_b.res in R3
REM R1 =  0.0140 for     320 Fo > 4sig(Fo)  and  0.0140 for all     320 data
REM     25 parameters refined using      1 restraints

END

WGHT      0.0177      1.1109

REM Highest difference peak  0.664,  deepest hole -1.005,  1-sigma level  0.152
Q1    1  -0.0535  0.0736  0.3842  11.00000  0.05    0.66
Q2    1   0.1666  0.6105  0.5167  11.00000  0.05    0.54
Q3    1   0.2250  0.4924  0.5796  11.00000  0.05    0.50
Q4    1   0.2868  0.1122  0.3292  11.00000  0.05    0.40
Q5    1   0.1720  0.2854  0.4259  11.00000  0.05    0.38
Q6    1   0.4146  0.2305  0.2527  11.00000  0.05    0.36
Q7    1   0.1888  0.4161  0.5016  11.00000  0.05    0.36
Q8    1   0.1070 -0.1073  0.3153  11.00000  0.05    0.33
Q9    1   0.2105  0.0971  0.4439  11.00000  0.05    0.32
Q10   1   0.0026  0.2821  0.4618  11.00000  0.05    0.23
Q11   1   0.2786  0.2759  0.2949  11.00000  0.05    0.23
Q12   1   0.6667  0.3333  0.5511  10.33333  0.05    0.17
Q13   1   0.3993  0.3141  0.4512  11.00000  0.05    0.12
Q14   1   0.4529  0.2757  0.5607  11.00000  0.05    0.12
Q15   1   0.0000  0.0000  0.5404  10.33333  0.05    0.12
Q16   1   0.3895  0.2367  0.4853  11.00000  0.05    0.12
Q17   1  -0.0678  0.1509  0.5269  11.00000  0.05    0.11
Q18   1   0.1605  0.2497  0.4975  11.00000  0.05    0.10
Q19   1   0.1103 -0.0502  0.5995  11.00000  0.05    0.10
Q20   1   0.5215  0.1470  0.3609  11.00000  0.05    0.10
;
_shelx_res_checksum   46550

_shelx_hkl_file
;
  -2   1   0 5323.57  168.38
  -2   1   0 5852.11  162.88
   1   1   0 5849.21  164.98
   1  -2   0 5869.81  165.18
   1  -2   0 5691.33  166.88
   1   1   0 5616.14  163.98
  -1   2   0 5773.82  164.28
   2  -1   0 5271.17  166.98
  -1  -1   0 5459.15  166.58
  -1   2   0 5590.84  166.58
   2  -1   0 5545.75  165.18
  -3   3   0 9416.86  267.97
  -3   3   0 9151.48  277.77
   3   0   0 9209.98  273.47
   3   0   0 9438.86  274.07
   0  -3   0 9187.48  274.27
   3   0   0 8880.81  271.87
   3  -3   0 8830.22  273.37
   0   3   0 9763.12  271.07
   0   3   0 9218.18  269.57
   3  -3   0 8871.61  271.67
   2   2   0 5842.92  178.68
   2   2   0 5894.61  177.58
   2  -4   0 6101.19  183.18
   2  -4   0 6078.49  178.88
  -4   2   0 6260.97  187.48
  -2   4   0 5964.80  182.58
   4  -2   0 5790.82  184.68
  -2   4   0 5812.52  176.98
  -2  -2   0 5857.51  182.88
   4  -2   0 5799.42  178.88
   1   4   0 5334.57  165.58
  -5   1   0 5353.46  173.58
   4  -5   0 5478.75  170.78
  -4   5   0 5501.45  175.88
   5  -1   0 5152.38  172.48
  -1  -4   0 5371.06  172.88
   1  -5   0 5205.48  167.68
   4   1   0 5231.38  158.58
  -5   4   0 5309.77  172.08
   4   1   0 5140.89  164.38
  -4  -1   0 5100.49  186.88
   5  -4   0 5118.99  168.68
  -1   5   0 5218.08  160.48
  -6   3   0 6151.88  203.18
   3   3   0 6237.78  191.58
   3  -6   0 6113.79  199.28
  -3   6   0 6520.15  224.48
  -3  -3   0 6175.78  201.08
   6  -3   0 6270.87  204.38
   1  -1  -1 1027.40   33.10
   1  -1  -1 1029.60   33.40
  -1   0  -1 1031.50   31.80
   0   1  -1 1071.19   31.60
   0   1  -1 1002.00   32.30
   1   0   1 1023.30   33.00
   0  -1   1 1053.09   32.90
   1   0   1 1007.40   31.70
  -1   1   1 1019.20   34.60
  -1   1   1 1059.89   30.60
   0  -1   1 1078.49   33.50
   3  -2  -1   30.70    5.40
  -1   3  -1   41.10    5.50
  -1   3  -1   28.30    4.90
   3  -2  -1   25.80    5.60
  -2  -1  -1   28.30    5.20
   2   1   1   44.10    5.20
   1  -3   1   42.20    4.80
  -3   2   1   50.59    8.20
  -3   2   1   47.80    3.90
   2   1   1   41.00    5.70
   2   1   1   50.49    5.30
   1  -3   1   50.69    6.10
   2   0  -1  453.95   19.60
  -2   2  -1  498.45   22.00
   0  -2  -1  444.16   20.00
  -2   2  -1  481.95   18.20
   2   0  -1  495.55   19.90
   2   0  -1  486.15   20.30
   0  -2  -1  496.85   15.60
   2   0  -1  460.65   16.70
   2  -2   1  469.15   18.50
   2  -2   1  480.55   20.40
   0   2   1  501.65   19.40
  -3  -2  -1  458.65   26.20
   5  -3  -1  474.55   28.40
  -2   5  -1  469.85   23.30
  -2   5  -1  501.25   25.30
   3   2   1  503.85   22.80
   2  -5   1  469.05   26.80
   3   2   1  536.05   25.90
  -5   3   1  473.25   29.20
   2  -3  -1 1409.36   47.20
   1   2  -1 1340.97   45.70
  -3   1  -1 1436.96   44.60
   2  -3  -1 1422.46   49.50
   1   2  -1 1443.26   45.50
   3  -1   1 1403.66   46.00
   3  -1   1 1376.46   50.29
  -2   3   1 1432.36   51.19
  -1  -2   1 1365.36   46.30
  -1  -2   1 1388.56   49.50
   3  -1   1 1344.47   49.70
  -2   3   1 1371.36   44.10
   4  -1  -1 1669.43   61.79
  -3   4  -1 1593.54   61.89
  -3   4  -1 1661.73   55.19
   4  -1  -1 1638.24   58.69
  -1  -3  -1 1678.93   60.69
   3  -4   1 1629.64   59.19
   1   3   1 1634.04   55.69
  -4   1   1 1688.13   61.89
   4  -4  -1  894.01   38.50
  -4   0  -1  920.61   34.60
   0   4  -1  914.61   36.50
   4  -4  -1  904.61   40.10
   0  -4   1  962.70   41.20
  -4   4   1  936.41   44.20
   4   0   1 1001.10   40.60
   4   0   1  932.51   39.80
  -4   3  -1  133.19   13.70
   3   1  -1  150.28   12.80
   3   1  -1  120.49    8.80
   3   1  -1  136.09   11.70
   1  -4  -1  145.99   12.90
  -1   4   1  132.29   11.10
  -1   4   1  117.89    9.10
   4  -3   1  117.49   12.00
   6  -2  -1   10.10    6.30
  -4   6  -1    6.80    6.00
  -2  -4  -1    6.70    5.50
  -6   2   1   10.70    7.30
   2   4   1   10.40    5.20
  -1   6  -1   45.60    9.60
   6  -5  -1   38.50   10.70
   1  -6   1   54.59   12.50
   5   1   1   51.29   16.70
  -6   5   1   46.50   12.70
   2   3  -1  170.78   12.90
  -5   2  -1  208.48   18.50
   3  -5  -1  220.48   17.30
  -3   5   1  227.88   18.30
  -2  -3   1  210.18   17.40
   5  -2   1  214.78   17.80
  -5   5  -1  324.67   25.30
   0  -5  -1  278.17   22.30
   5   0  -1  309.67   23.10
   0   5   1  295.07   18.60
   5  -5   1  308.27   22.80
  -5   0   1  343.47   23.60
  -6   1  -1  497.05   32.20
   1   5  -1  476.55   26.70
   6  -1   1  448.66   30.70
  -5   6   1  484.15   33.50
  -1  -5   1  440.66   30.40
  -6   4  -1  911.21   46.30
   4   2  -1  857.71   35.90
   2  -6  -1  820.72   42.50
  -4  -2   1  857.61   43.40
   6  -4   1  869.81   45.30
  -2   6   1  861.21   36.00
   1   0  -2 7030.40  212.88
   1   0  -2 7258.57  213.28
  -1   1  -2 7590.34  211.68
   0  -1  -2 7127.39  212.38
   1  -1   2 7060.39  214.98
   0   1   2 7755.02  212.68
   1  -1   2 7282.87  212.38
   1  -1   2 7477.65  213.58
   0   1   2 7251.97  210.28
  -1   0   2 7167.98  211.98
   2  -2  -2 5737.33  169.38
   2  -2  -2 5402.76  169.48
   0   2  -2 5853.01  167.88
   0   2  -2 6007.10  165.68
  -2   0  -2 5473.75  165.98
  -2   0  -2 5462.75  166.18
   0  -2   2 5898.41  169.88
  -2   2   2 5681.43  163.18
  -2   2   2 5530.85  172.28
   0  -2   2 5692.13  168.18
   2   0   2 5666.33  169.08
  -1  -2  -2 6055.49  180.98
  -1  -2  -2 5995.00  174.28
   3  -1  -2 5689.53  182.38
  -2   3  -2 6094.89  179.18
  -2   3  -2 6028.50  181.98
  -3   1   2 6000.30  173.98
   1   2   2 5886.21  177.18
  -3   1   2 5762.12  183.08
   1   2   2 6259.87  179.98
   2  -3   2 6220.78  181.18
  -3  -1  -2 6866.71  210.68
  -1   4  -2 7279.57  209.38
   4  -3  -2 6968.80  215.18
  -1   4  -2 6952.30  209.98
   4  -3  -2 6823.12  212.58
   3   1   2 7111.29  208.18
  -4   3   2 6825.52  218.28
   3   1   2 7179.78  210.88
   3   1   2 6655.43  211.68
   1  -4   2 7249.67  214.38
  -3   2  -2 6996.80  204.58
  -3   2  -2 7215.08  212.18
   2   1  -2 6840.02  205.38
   1  -3  -2 7465.55  202.88
   2   1  -2 6844.42  209.88
   1  -3  -2 6925.61  209.58
   2   1  -2 7175.78  204.08
  -1   3   2 6997.60  203.48
   3  -2   2 6681.83  209.98
   3  -2   2 6700.33  203.58
  -1   3   2 7075.49  208.48
  -2  -1   2 6632.84  208.48
  -3   5  -2 5157.78  160.98
  -3   5  -2 5082.89  155.98
   5  -2  -2 4933.31  164.18
  -2  -3  -2 4971.30  161.18
   3  -5   2 4980.50  158.48
  -5   2   2 4960.40  164.28
   2   3   2 5119.89  155.28
   3  -5   2 5098.59  160.38
   2   3   2 5131.89  158.88
  -2   6  -2 5005.20  159.68
   6  -4  -2 5015.00  170.58
  -4  -2  -2 4819.02  158.28
  -6   4   2 5240.68  173.08
   2  -6   2 5128.49  167.18
   4   2   2 5220.08  165.18
  -4   1  -2 6680.93  205.48
   3  -4  -2 7014.50  213.18
   1   3  -2 7102.79  208.18
   3  -4  -2 7323.17  210.78
   4  -1   2 6689.23  213.28
  -1  -3   2 6980.10  213.98
  -3   4   2 6967.30  216.58
   4  -1   2 6849.11  213.48
   4   0  -2 6737.33  204.68
   4   0  -2 6491.15  202.98
   0  -4  -2 6440.06  203.68
  -4   4  -2 6703.63  206.78
   4  -4   2 6554.94  203.68
  -4   0   2 6381.06  201.88
   0   4   2 6525.75  196.48
   0   4   2 6492.05  199.38
   5  -5  -2 3668.03  123.49
  -5   0  -2 3517.75  114.49
   0   5  -2 3643.24  117.79
  -5   5   2 3573.74  128.49
   5   0   2 3622.24  122.79
   0  -5   2 3514.25  123.59
  -5   3  -2 4248.77  141.09
   3   2  -2 4260.57  129.99
   2  -5  -2 4201.48  137.99
  -2   5   2 4263.07  136.99
   5  -3   2 4109.99  139.79
  -2   5   2 4173.08  128.29
  -3  -2   2 4079.89  138.19
  -5   6  -2 3953.20  137.19
  -1  -5  -2 3911.71  136.49
   6  -1  -2 3850.81  137.19
   5  -6   2 3799.42  133.59
  -6   1   2 3928.51  135.09
   1   5   2 3943.31  127.39
   2   4  -2 5598.74  173.88
  -6   2  -2 5412.96  183.88
   4  -6  -2 5623.84  181.68
   6  -2   2 5457.75  183.98
  -2  -4   2 5616.84  183.88
  -4   6   2 5568.24  184.78
  -6   5  -2 5049.79  170.98
   1  -6  -2 4868.81  166.38
   6  -5   2 4841.72  168.38
  -1   6   2 5170.88  157.68
   0   0  -3 1263.07   38.70
   0   0  -3 1243.28   37.60
   0   0   3 1199.08   39.40
   0   0   3 1243.08   37.60
  -1   2  -3  959.00   33.90
  -1   2  -3 1008.80   35.10
   2  -1  -3 1005.30   36.80
  -1  -1  -3  985.40   34.30
   2  -1  -3 1032.30   36.90
   1   1   3  943.11   34.90
   1  -2   3 1041.90   36.60
  -2   1   3 1043.30   37.30
   1   1   3 1002.10   33.30
   1   1   3 1068.89   31.90
  -2   1   3 1046.00   29.60
   1   1  -3 3945.91  111.49
   1   1  -3 3863.01  112.99
   1   1  -3 3713.83  116.49
  -2   1  -3 3641.74  113.09
   1  -2  -3 3956.80  112.69
   1  -2  -3 3830.92  116.49
  -1  -1   3 3651.73  116.09
   2  -1   3 3634.64  116.09
  -1   2   3 3719.23  116.29
   2  -1   3 3890.71  116.29
  -1   2   3 3947.51  111.09
  -2   4  -3 1868.01   63.99
  -2   4  -3 1800.02   63.79
   4  -2  -3 1867.91   68.59
  -2  -2  -3 1934.71   65.49
   2  -4   3 1924.91   65.89
   2   2   3 1823.72   65.29
   2  -4   3 1900.31   65.39
   2   2   3 1887.01   61.89
  -4   2   3 1909.81   69.49
   0   3  -3  747.33   30.50
   3  -3  -3  764.92   31.90
   3  -3  -3  736.93   32.20
   0   3  -3  785.02   30.20
  -3   0  -3  767.12   28.20
  -3   0  -3  736.93   27.40
  -3   3   3  721.83   34.90
   0  -3   3  768.82   32.60
   0  -3   3  794.32   30.80
   3   0   3  802.32   32.20
   3   0  -3  928.21   36.50
   3   0  -3  877.21   36.60
   0  -3  -3  851.81   35.50
   3   0  -3  854.51   29.10
  -3   3  -3  834.52   36.50
  -3   3  -3  861.21   32.40
   3  -3   3  829.42   30.90
  -3   0   3  900.21   34.60
   0   3   3  874.31   34.30
   3  -3   3  823.12   35.60
   0   3   3  793.82   30.30
   6  -3  -3  330.87   26.00
  -3   6  -3  369.96   21.60
   3  -6   3  332.77   23.30
   3   3   3  341.97   20.40
  -6   3   3  349.57   26.30
   3   3   3  356.56   23.20
  -4  -1  -3   97.79   10.80
   5  -4  -3   79.19   13.60
  -1   5  -3   71.79   10.40
   4   1   3   83.99   12.20
   1  -5   3   79.69   12.40
  -5   4   3   97.59   15.50
  -4   2  -3   16.40    5.90
   2  -4  -3   12.50    4.90
   2   2  -3    6.40    4.30
  -4   2  -3    8.20    3.60
   2   2  -3   11.20    3.70
   4  -2   3   15.50    5.40
  -2   4   3   15.60    5.60
  -2   4   3   10.40    2.90
  -2  -2   3   17.50    5.20
  -1  -4  -3   49.60   10.40
  -4   5  -3   50.09   10.70
   5  -1  -3   58.29   12.00
   4  -5   3   64.79   12.00
  -5   1   3   77.19   12.40
   1   4   3   94.79   10.80
   1   4   3   62.89   10.10
   4  -5  -3 1163.48   49.50
  -5   1  -3 1112.49   42.80
   1   4  -3 1099.09   43.70
   5  -1   3 1108.19   49.10
  -1  -4   3 1017.60   48.50
   5  -1   3 1114.79   48.80
  -4   5   3 1157.98   52.79
  -5   4  -3 1000.90   47.00
   1  -5  -3  984.60   44.80
   4   1  -3 1059.39   46.90
  -1   5   3  929.91   37.40
   5  -4   3  937.41   45.30
  -4  -1   3  994.50   45.00
  -1   5   3  963.40   42.10
   3  -6  -3  494.45   31.40
  -6   3  -3  529.95   33.40
   3   3  -3  506.55   25.70
   6  -3   3  525.15   33.60
  -3   6   3  536.05   32.30
  -3  -3   3  491.85   32.20
   0   1  -4 7431.66  212.48
   1  -1  -4 7105.09  209.18
  -1   0  -4 7168.38  210.58
  -1   0  -4 6830.92  212.58
   1  -1  -4 6756.62  213.18
   0   1  -4 7494.65  211.78
   0  -1   4 7446.65  214.78
  -1   1   4 7448.85  213.08
   1   0   4 7584.14  211.88
  -1   1   4 7187.68  212.58
  -2  -1  -4 7167.78  205.58
  -2  -1  -4 6893.81  204.98
  -1   3  -4 6372.26  206.78
   3  -2  -4 6915.31  210.38
  -1   3  -4 6930.11  203.78
   3  -2  -4 7117.39  210.88
  -3   2   4 6865.11  212.68
   2   1   4 7106.89  204.68
   1  -3   4 7057.69  209.28
   2   1   4 6833.92  208.48
   1  -3   4 7105.69  208.48
   2   0  -4 8921.61  251.57
  -2   2  -4 8762.82  257.87
   2   0  -4 8241.38  258.57
  -2   2  -4 9083.29  255.97
   0  -2  -4 9011.70  257.57
   2   0  -4 8815.12  259.37
  -2   0   4 8487.55  255.67
   2  -2   4 8322.17  252.37
   0   2   4 9081.39  257.57
   2  -2   4 8667.03  259.17
  -2   0   4 8319.47  259.37
   0   2   4 8861.61  252.97
  -3  -2  -4 7549.94  223.18
   5  -3  -4 7555.74  229.68
   5  -3  -4 7568.44  232.78
  -2   5  -4 7111.99  224.98
   2  -5   4 7531.75  228.48
   3   2   4 7111.99  227.48
  -5   3   4 7349.16  234.08
   1   2  -4 7548.34  235.78
   1   2  -4 8327.37  231.38
   2  -3  -4 8133.49  231.78
  -3   1  -4 7637.84  230.38
   2  -3  -4 7761.62  235.98
  -2   3   4 7873.41  226.28
  -1  -2   4 7767.72  234.58
   3  -1   4 7478.65  234.78
  -2   3   4 7935.81  237.28
   3  -1   4 7868.01  235.38
   4  -1  -4 6049.39  186.48
  -3   4  -4 5776.52  181.48
  -1  -3  -4 6240.28  185.68
   4  -1  -4 6055.49  188.18
   3  -4   4 6054.99  185.88
   1   3   4 5944.21  179.18
  -4   1   4 5895.01  185.68
   1   3   4 5886.01  183.68
   3  -4   4 5851.61  185.58
  -4   0  -4 5475.25  168.48
   4  -4  -4 5661.93  176.28
   0   4  -4 5537.25  171.18
   4  -4  -4 5670.23  174.98
   4   0   4 5423.36  175.08
   4   0   4 5613.34  173.28
  -4   4   4 5234.08  179.58
   0  -4   4 5726.43  176.38
   3   1  -4 5595.34  175.68
   1  -4  -4 5440.96  174.08
  -4   3  -4 5586.94  168.28
  -4   3  -4 5658.53  176.78
   4  -3   4 5259.77  174.78
  -1   4   4 5727.63  165.68
  -3  -1   4 5410.76  174.38
  -1   4   4 5696.73  173.28
   6  -2  -4 4100.69  142.49
  -2  -4  -4 4164.48  138.69
  -6   2   4 3972.80  138.49
   2   4   4 4029.10  130.49
   2   4   4 4029.00  137.49
  -1   6  -4 4117.39  137.99
  -5  -1  -4 4203.48  135.09
   6  -5  -4 4200.98  145.39
  -6   5   4 4275.57  150.48
   1  -6   4 4195.68  144.19
   5   1   4 4243.68  144.39
   3  -5  -4 6695.33  207.88
  -5   2  -4 6507.15  209.18
   2   3  -4 6636.04  199.08
   5  -2   4 6414.86  207.88
  -3   5   4 6671.63  209.98
  -2  -3   4 6479.25  207.98
   5   0  -4 6612.74  212.58
  -5   5  -4 6678.23  212.58
   0  -5  -4 6485.75  209.58
  -5   0   4 6460.05  212.48
   5  -5   4 6514.05  210.48
   0   5   4 6527.25  205.68
   0   5   4 6704.13  200.48
   5  -6  -4 5655.83  182.08
  -6   1  -4 5489.75  184.68
   1   5  -4 5558.74  173.98
  -1  -5   4 5382.46  182.68
  -5   6   4 5241.38  186.38
  -6   4  -4 5074.49  168.58
   2  -6  -4 4960.20  165.48
   6  -4   4 4975.90  168.68
  -4  -2   4 4959.40  167.78
  -2   6   4 4819.42  162.88
  -1   1  -5  639.94   23.80
   0  -1  -5  622.44   21.50
   0  -1  -5  627.64   24.00
   1   0  -5  610.94   25.10
   1   0  -5  639.14   21.60
  -1   1  -5  612.24   21.30
   0   1   5  601.44   23.90
   0   1   5  655.13   23.10
   1  -1   5  651.73   22.50
   1  -1   5  658.03   26.10
  -1   0   5  628.34   21.70
  -1   0   5  643.24   26.00
   0   2  -5  796.22   29.80
  -2   0  -5  737.03   25.40
   0   2  -5  778.72   31.00
   2  -2  -5  795.52   32.30
   2  -2  -5  738.23   30.50
  -2   0  -5  776.22   28.20
   2  -2  -5  808.62   23.70
   0  -2   5  825.52   32.70
  -2   2   5  797.82   32.50
   2   0   5  852.81   30.40
   2   0   5  755.32   30.20
   3  -1  -5  159.38   13.00
  -2   3  -5  146.79   10.80
   3  -1  -5  152.28   12.50
  -2   3  -5  160.78   11.50
  -1  -2  -5  141.99   10.80
   1   2   5  148.19    9.50
   1   2   5  172.48   11.90
   2  -3   5  151.58    9.90
  -3   1   5  152.58   11.90
   2  -3   5  148.89   12.40
   4  -3  -5 1182.48   47.80
  -1   4  -5 1127.79   43.90
   4  -3  -5 1076.19   46.40
  -3  -1  -5 1109.19   41.40
   3   1   5 1127.69   45.20
   1  -4   5 1114.69   45.30
  -4   3   5 1168.98   50.09
   1  -4   5 1136.69   45.10
  -3   2  -5 1646.64   54.99
   1  -3  -5 1627.54   58.39
   2   1  -5 1631.94   59.19
   3  -2   5 1693.13   58.49
  -1   3   5 1615.34   51.19
  -2  -1   5 1611.74   59.39
   3  -2   5 1614.54   59.09
  -1   3   5 1575.34   57.79
   5  -2  -5  663.93   33.90
  -3   5  -5  663.03   30.70
   5  -2  -5  637.44   35.30
  -2  -3  -5  625.04   31.90
   2   3   5  687.23   33.00
  -5   2   5  657.23   34.60
   2   3   5  659.03   29.00
   3  -5   5  671.83   33.20
  -2   6  -5   95.29   13.50
   6  -4  -5   67.99   14.30
  -4  -2  -5   63.89   10.10
  -6   4   5   68.29   14.20
   4   2   5   97.29   15.70
   2  -6   5   66.39   12.50
   3  -4  -5   42.30    9.00
  -4   1  -5   40.20    6.90
   1   3  -5   34.80    6.70
   3  -4  -5   32.00    6.90
   4  -1   5   43.60    8.60
   4  -1   5   50.69    9.40
  -1  -3   5   34.30    7.80
  -3   4   5   49.90   10.70
  -1  -3   5   36.00    8.00
  -4   4  -5  226.18   18.00
   4   0  -5  219.28   18.20
  -4   4  -5  225.28   15.20
   0  -4  -5  197.48   16.50
   0   4   5  216.18   13.20
   4  -4   5  231.48   18.20
   0   4   5  243.68   17.00
  -4   0   5  255.07   19.70
   5  -5  -5  334.47   24.90
   0   5  -5  318.07   20.80
  -5   0  -5  333.07   19.70
   5  -5  -5  272.67   22.20
  -5   5   5  336.47   27.50
   5   0   5  382.86   25.80
   0  -5   5  337.47   24.50
  -5   3  -5  336.87   24.00
   3   2  -5  309.07   16.90
   3   2  -5  320.57   23.70
   2  -5  -5  284.27   21.80
   5  -3   5  327.07   23.30
  -2   5   5  339.37   23.10
  -3  -2   5  313.17   22.00
   4  -6  -5 1169.18   55.39
  -6   2  -5 1170.68   56.69
   2   4  -5 1126.99   47.20
  -4   6   5 1276.27   59.69
   6  -2   5 1198.28   56.39
  -2  -4   5 1178.48   56.09
   0   0  -6 3535.25  107.69
   0   0  -6 3589.14  109.79
   0   0   6 3617.84  111.79
   0   0   6 3679.63  107.49
  -1   2  -6 8551.74  254.67
  -1  -1  -6 8712.13  251.77
   2  -1  -6 9021.60  247.88
  -1   2  -6 8852.31  253.47
   2  -1  -6 8720.83  258.47
  -1  -1  -6 8642.33  252.87
  -1   2  -6 8432.96  251.27
  -2   1   6 8545.14  257.97
  -2   1   6 8216.48  254.67
   1  -2   6 8971.60  259.47
   1   1   6 8177.28  251.77
   1   1   6 8666.03  255.37
   1   1  -6 9087.69  280.17
   1  -2  -6 9441.46  272.87
   1  -2  -6 9549.94  280.37
   1   1  -6 9999.00  276.07
  -2   1  -6 9355.36  277.07
   2  -1   6 9916.21  278.37
  -1   2   6 9569.04  280.07
  -1  -1   6 8969.60  270.57
  -1  -1   6 9273.67  282.47
   2  -1   6 9228.88  281.07
  -1   2   6 9596.94  276.97
  -2  -2  -6 7804.02  223.58
   4  -2  -6 7199.18  231.48
   4  -2  -6 7561.44  231.28
  -2  -2  -6 7871.51  225.78
  -2   4  -6 7229.98  226.58
   2  -4   6 7521.55  226.08
   2  -4   6 7591.14  230.28
  -4   2   6 7447.85  230.98
   2   2   6 7100.69  227.78
   0   3  -6 4776.42  142.69
  -3   0  -6 4677.03  140.49
   3  -3  -6 4666.53  147.39
   3  -3  -6 4652.53  144.69
   0  -3   6 4849.71  145.79
   3   0   6 4194.48  143.69
   3   0   6 4745.73  143.49
   0  -3   6 4474.05  145.59
  -3   3   6 4412.56  147.99
  -3   3  -6 4444.46  139.59
  -3   3  -6 4322.07  142.09
   3   0  -6 4631.54  144.99
   0  -3  -6 4806.02  142.59
  -3   0   6 4493.05  145.39
  -3   0   6 4378.46  137.99
   0   3   6 4351.76  141.39
   3  -3   6 4471.35  144.59
   0   3   6 4582.44  135.79
   6  -3  -6 3900.01  134.69
  -3   6  -6 3615.34  123.59
  -3  -3  -6 3567.84  120.49
   3   3   6 3740.53  128.39
  -6   3   6 3815.32  131.79
   5  -4  -6 5829.12  185.18
  -4  -1  -6 5983.60  177.48
  -1   5  -6 5272.27  178.58
   5  -4  -6 5850.71  186.38
   1  -5   6 5702.53  183.08
   4   1   6 5635.44  183.78
  -5   4   6 5824.52  189.88
   2   2  -6 7283.97  206.58
  -4   2  -6 6753.32  208.28
   2   2  -6 7096.79  216.38
   2  -4  -6 7132.49  215.58
  -2  -2   6 6891.71  215.58
   4  -2   6 6979.90  215.38
  -2   4   6 6607.14  214.78
   4  -2   6 6605.94  213.58
  -1  -4  -6 5642.84  177.58
  -4   5  -6 5386.46  172.38
   5  -1  -6 5682.73  181.98
   5  -1  -6 5718.73  180.58
   1   4   6 5571.54  170.08
   4  -5   6 5354.06  178.78
   1   4   6 5345.67  176.08
   1   4  -6 6044.20  187.08
  -5   1  -6 5871.01  185.98
   4  -5  -6 6113.39  196.08
   5  -1   6 6263.87  194.68
   5  -1   6 5856.01  194.08
  -1  -4   6 6250.57  196.28
  -4   5   6 6031.00  200.38
   1  -5  -6 6251.37  197.18
   4   1  -6 6151.38  200.08
  -5   4  -6 6302.37  199.08
  -1   5   6 6154.48  184.98
   5  -4   6 6034.60  199.18
  -1   5   6 6091.79  195.08
  -4  -1   6 5999.50  198.78
   3   3  -6 4064.29  128.69
  -6   3  -6 3992.30  141.79
   3  -6  -6 4186.68  141.39
   6  -3   6 4055.59  142.49
  -3   6   6 3902.61  141.09
  -3  -3   6 3967.40  141.59
   1  -1  -7  619.54   21.90
   0   1  -7  609.64   25.40
   1  -1  -7  626.44   27.20
  -1   0  -7  658.13   24.10
  -1   0  -7  633.14   23.40
   0   1  -7  634.54   24.70
  -1   1   7  644.84   25.30
  -1   1   7  626.54   26.60
   0  -1   7  614.14   28.30
   1   0   7  602.74   24.30
   1   0   7  641.44   26.50
   0  -1   7  641.94   20.50
  -2  -1  -7 1455.45   50.59
   3  -2  -7 1464.05   55.99
  -1   3  -7 1526.65   53.69
   3  -2  -7 1476.15   57.09
   1  -3   7 1470.65   52.69
  -3   2   7 1529.15   56.39
   2   1   7 1466.25   54.59
   1  -3   7 1513.45   56.89
   2   0  -7  974.90   41.60
  -2   2  -7 1030.80   39.20
   0  -2  -7 1007.20   35.60
   2   0  -7 1089.59   34.90
   0  -2  -7 1039.00   40.00
   0   2   7 1075.79   40.80
  -2   0   7 1088.79   36.80
   2  -2   7 1106.69   43.50
   2  -2   7 1133.09   39.40
  -2   0   7 1064.79   43.60
   5  -3  -7  449.95   29.40
  -2   5  -7  476.95   26.20
  -3  -2  -7  453.65   23.50
   5  -3  -7  479.35   29.60
   3   2   7  511.25   28.90
   2  -5   7  478.35   26.70
   2  -5   7  484.15   28.30
  -5   3   7  503.45   30.60
   1   2  -7  293.17   15.70
  -3   1  -7  289.47   16.20
   2  -3  -7  303.37   19.50
   1   2  -7  270.27   18.50
  -2   3   7  333.67   17.50
   3  -1   7  294.37   17.70
  -2   3   7  306.27   19.30
  -1  -2   7  324.17   20.50
   3  -1   7  316.67   19.00
  -1  -3  -7   28.50    5.50
  -3   4  -7   43.00    8.10
   4  -1  -7   28.10    7.90
  -1  -3  -7   39.80    8.10
  -4   1   7   61.79   11.90
  -4   1   7   46.40    8.50
   3  -4   7   37.30    8.90
   1   3   7   43.20    8.60
   4  -4  -7  168.08   15.40
   0   4  -7  177.48   14.00
  -4   0  -7  165.68   13.00
   4  -4  -7  190.88   17.70
   0  -4   7  200.48   16.90
   0  -4   7  175.08   15.80
  -4   4   7  194.08   18.90
   4   0   7  187.08   16.30
   3   1  -7 1003.20   44.50
  -4   3  -7  938.41   42.60
  -4   3  -7 1038.20   39.60
   1  -4  -7  932.41   42.30
  -1   4   7  925.21   34.30
  -3  -1   7  971.50   44.50
   4  -3   7  958.00   43.90
  -1   4   7  881.91   41.00
  -5   2  -7  913.71   37.60
   2   3  -7  857.61   35.60
   3  -5  -7  874.01   43.40
  -3   5   7  857.41   44.20
   5  -2   7  852.71   42.00
   5  -2   7  878.51   42.80
  -2  -3   7  831.82   42.90
   5   0  -7  550.04   34.40
   0  -5  -7  527.45   32.30
   5  -5   7  556.74   34.20
   0   5   7  539.75   31.40
  -5   0   7  550.54   35.10
   0   5   7  540.65   26.20
   0  -1  -8 7462.85  211.28
  -1   1  -8 7117.29  214.08
   0  -1  -8 7313.97  215.08
   1   0  -8 6846.51  210.98
   1   0  -8 7251.97  217.08
  -1   1  -8 6999.50  211.38
  -1   0   8 6914.01  210.68
   0   1   8 7041.20  214.78
   1  -1   8 7002.90  219.08
   1  -1   8 7639.04  211.68
  -1   0   8 7240.08  219.78
   0   1   8 7511.75  214.78
   0   2  -8 8420.06  243.58
   2  -2  -8 8139.89  246.08
   0   2  -8 8338.77  241.38
  -2   0  -8 8008.40  239.78
  -2   2   8 7855.81  243.68
   2   0   8 7915.71  242.78
   0  -2   8 7959.40  247.38
   2   0   8 8133.39  242.28
  -2   2   8 8135.09  244.28
  -1  -2  -8 7538.55  214.68
  -1  -2  -8 7439.16  210.88
  -2   3  -8 6984.70  214.98
   3  -1  -8 7248.37  220.18
  -3   1   8 6816.42  213.88
   2  -3   8 7004.10  220.58
   1   2   8 6625.34  215.78
  -3   1   8 7109.19  220.48
   4  -3  -8 5727.43  182.38
  -3  -1  -8 5694.43  172.78
   4  -3  -8 5630.34  180.08
  -1   4  -8 5471.75  175.08
   1  -4   8 5737.53  177.18
   1  -4   8 5611.64  180.08
  -4   3   8 5600.94  181.48
   3   1   8 5683.33  179.18
  -3   2  -8 6543.05  202.38
   2   1  -8 6994.80  197.88
   1  -3  -8 7019.90  206.58
   1  -3  -8 7052.59  196.58
   2   1  -8 6520.35  207.18
   3  -2   8 6429.56  207.48
   3  -2   8 6635.24  203.68
  -1   3   8 6377.36  204.88
  -2  -1   8 6456.85  209.08
   5  -2  -8 6012.40  190.18
   5  -2  -8 5669.93  189.88
  -3   5  -8 5756.02  183.28
  -2  -3  -8 5943.41  179.38
   3  -5   8 5913.31  188.98
   2   3   8 5607.84  185.88
  -5   2   8 5760.02  194.08
  -5   2   8 5944.51  192.68
   1   3  -8 5644.23  166.98
   3  -4  -8 5444.15  174.98
  -4   1  -8 5337.67  166.98
   1   3  -8 5425.36  174.28
  -1  -3   8 5308.77  174.18
   4  -1   8 5562.54  173.08
   4  -1   8 5390.96  172.78
  -3   4   8 5145.58  175.58
   0  -4  -8 5293.27  155.48
   4   0  -8 5122.49  167.98
  -4   4  -8 5064.79  160.58
   0  -4  -8 5284.07  165.08
   4  -4   8 4854.21  166.68
  -4   0   8 5059.79  169.18
   0   4   8 4909.61  163.18
   0   5  -8 6154.18  193.98
   5  -5  -8 6334.57  204.48
  -5   0  -8 6119.89  192.18
   5   0   8 6116.99  201.88
  -5   5   8 6063.09  206.68
   0  -5   8 6187.68  200.58
  -5   3  -8 6410.46  211.58
   2  -5  -8 6925.41  213.18
  -5   3  -8 6401.96  204.08
   3   2  -8 6617.74  214.08
  -3  -2   8 6688.33  214.68
   5  -3   8 6590.64  213.48
  -2   5   8 6626.54  212.18
   0   0  -9  311.97   15.70
   0   0  -9  308.47   17.10
   0   0   9  333.07   15.10
   0   0   9  349.67   19.60
  -1   2  -9 3085.39   99.69
  -1  -1  -9 3081.79   96.49
  -1  -1  -9 3057.39   97.59
   2  -1  -9 3246.68  104.79
  -1   2  -9 3166.68   98.29
   1   1   9 3102.39  100.59
   1   1   9 3041.80   98.49
  -2   1   9 3197.98  104.39
   1  -2   9 3011.90  105.49
  -2   1   9 3048.79   98.39
   1  -2  -9   22.80    6.10
  -2   1  -9   32.30    6.20
   1   1  -9   20.20    5.70
   1  -2  -9   23.40    3.90
   1   1  -9   27.80    5.40
  -1  -1   9   54.79   10.00
   2  -1   9   46.10    6.90
   2  -1   9   58.29    9.80
  -1   2   9   29.00    6.30
   4  -2  -9   52.19   10.50
  -2   4  -9   55.69    9.40
  -2  -2  -9   48.00    7.80
   2  -4   9   82.39   13.30
  -4   2   9   68.59   11.30
  -4   2   9   75.09   12.90
   2   2   9   79.69   11.50
   3  -3  -9  359.56   24.00
   0   3  -9  362.46   20.20
   0   3  -9  341.57   21.80
  -3   0  -9  333.27   19.10
  -3   3   9  408.26   24.70
   0  -3   9  414.16   25.40
   3   0   9  386.26   22.50
  -3   3   9  374.86   22.60
   3   0   9  388.46   21.80
   0  -3  -9  286.77   15.10
   3   0  -9  310.17   21.70
   0  -3  -9  274.37   19.00
  -3   3  -9  331.47   19.90
   0   3   9  316.07   20.20
  -3   0   9  301.47   22.20
   3  -3   9  348.67   23.10
  -4  -1  -9  928.41   40.30
   5  -4  -9  954.10   48.70
  -1   5  -9  913.41   42.30
   5  -4  -9  887.61   45.40
   1  -5   9  968.70   45.00
  -5   4   9 1011.10   49.40
   4   1   9 1006.50   47.40
   2  -4  -9 1689.03   66.79
   2   2  -9 1629.84   57.59
  -4   2  -9 1691.03   61.69
   2   2  -9 1685.03   67.59
   4  -2   9 1719.43   67.09
  -2   4   9 1702.73   67.19
  -2  -2   9 1668.43   68.69
   4  -2   9 1700.83   64.79
   5  -1  -9 1007.10   49.99
  -1  -4  -9  939.71   45.20
  -4   5  -9 1004.10   44.20
  -1  -4  -9  969.80   39.80
  -5   1   9 1052.09   51.69
   4  -5   9  973.90   48.70
   1   4   9 1037.50   47.50
   1   4  -9  121.29   14.80
  -5   1  -9  120.59   14.40
   4  -5  -9  124.39   18.90
   5  -1   9  142.49   19.50
  -4   5   9  168.08   23.00
  -1  -4   9  145.69   16.60
  -5   4  -9  170.08   18.00
  -5   4  -9  162.68   17.20
   1  -5  -9  141.79   16.70
   4   1  -9  153.08   18.40
  -1   5   9  170.48   17.50
  -4  -1   9  170.48   19.00
   5  -4   9  178.78   19.10
  -1   0 -10 7657.13  225.18
   0   1 -10 7551.54  227.78
   1  -1 -10 7243.68  222.78
   1  -1 -10 7718.23  230.78
  -1   0 -10 7811.22  225.68
   0   1 -10 7491.45  225.88
   0  -1  10 7478.05  233.58
  -1   1  10 7688.43  231.18
   1   0  10 7872.11  226.18
   1   0  10 7176.58  229.98
  -1   1  10 7572.44  226.18
   3  -2 -10 7352.36  224.98
  -1   3 -10 7000.20  217.48
  -2  -1 -10 7221.88  214.58
   1  -3  10 6959.00  225.08
  -3   2  10 6976.70  219.08
   2   1  10 6988.90  219.98
  -3   2  10 7177.38  223.28
   1  -3  10 7438.76  217.38
   0  -2 -10 6285.57  187.18
  -2   2 -10 5879.01  185.98
   0  -2 -10 6447.06  181.48
   2   0 -10 6379.16  191.68
   2  -2  10 5291.67  194.48
   2  -2  10 6012.70  192.68
  -2   0  10 6158.88  193.88
   0   2  10 6077.89  187.38
   5  -3 -10 3849.91  132.29
  -2   5 -10 3522.85  123.09
  -3  -2 -10 3840.42  120.89
  -5   3  10 3854.61  128.49
  -5   3  10 3677.03  131.39
   2  -5  10 3668.53  129.79
   3   2  10 3612.84  128.09
  -3   1 -10 5713.43  179.08
   1   2 -10 5953.30  184.78
   2  -3 -10 5933.31  185.48
   1   2 -10 5996.40  177.48
  -2   3  10 5800.22  184.28
  -1  -2  10 5592.24  187.88
   3  -1  10 5833.62  184.48
   3  -1  10 5824.22  181.38
  -3   4 -10 5766.42  192.78
   4  -1 -10 6369.66  201.38
  -1  -3 -10 6306.17  193.88
  -1  -3 -10 6348.56  188.28
   3  -4  10 6238.88  201.18
  -4   1  10 6142.99  201.88
   1   3  10 6242.38  196.88
  -4   0 -10 6277.07  192.48
   0   4 -10 6141.29  193.08
   4  -4 -10 6444.26  203.98
   0  -4  10 6298.87  198.08
   0  -4  10 6232.88  201.78
   4   0  10 5794.42  197.38
  -4   4  10 6227.68  202.78
  -4   3 -10 6525.55  205.38
   1  -4 -10 7095.79  211.18
  -4   3 -10 6571.44  208.88
   3   1 -10 6683.33  213.08
  -1   4  10 6289.37  208.68
  -3  -1  10 6748.42  216.18
   4  -3  10 6443.66  212.28
   2   3 -10 4869.11  163.78
   3  -5 -10 4804.82  162.78
  -5   2 -10 4859.61  154.78
   2   3 -10 4807.12  150.38
  -3   5  10 4590.84  163.58
   5  -2  10 4942.71  162.98
  -2  -3  10 4783.92  164.08
   5  -2  10 4759.42  160.08
   1   0 -11  707.03   33.50
  -1   1 -11  732.93   31.00
   0  -1 -11  689.43   31.80
   0  -1 -11  711.63   28.70
   1   0 -11  743.13   28.90
   1  -1  11  748.43   36.30
   0   1  11  704.33   32.50
   0   1  11  746.53   31.30
  -1   0  11  742.93   36.40
   2  -2 -11  566.64   31.60
   0   2 -11  602.14   29.70
   0   2 -11  628.34   28.20
  -2   0 -11  596.24   27.50
  -2   2  11  647.14   30.20
  -2   2  11  617.34   31.70
   2   0  11  647.74   29.60
   0  -2  11  659.73   34.70
  -1  -2 -11  874.21   35.90
   3  -1 -11  943.41   44.70
  -2   3 -11  952.40   40.60
   1   2  11  958.30   42.00
  -3   1  11  961.10   45.40
   2  -3  11  977.90   46.30
  -3  -1 -11  130.99   14.40
   4  -3 -11  157.18   17.40
  -1   4 -11  123.79   14.50
   1  -4  11  138.89   16.40
  -4   3  11  161.98   16.80
   3   1  11  130.09   17.10
  -4   3  11  139.19   15.60
   1  -3 -11  154.78   15.00
  -3   2 -11  188.78   15.20
   2   1 -11  140.99   15.10
   3  -2  11  153.28   13.70
  -2  -1  11  179.48   17.80
  -1   3  11  146.19   14.50
   3  -2  11  194.28   17.40
   5  -2 -11  283.27   24.80
  -2  -3 -11  258.97   18.00
  -3   5 -11  291.77   21.70
   3  -5  11  279.27   24.10
  -5   2  11  295.77   25.50
   2   3  11  311.87   23.70
   1   3 -11  996.30   41.60
   3  -4 -11  985.80   48.70
   1   3 -11  959.10   47.30
  -4   1 -11 1009.80   43.30
  -3   4  11 1082.79   50.39
  -1  -3  11 1038.90   50.79
   4  -1  11 1057.69   47.40
   4  -1  11 1040.70   47.10
   0  -4 -11  544.05   28.00
  -4   4 -11  626.24   32.40
   4   0 -11  598.94   36.30
   0  -4 -11  554.24   32.30
  -4   0  11  595.84   37.20
   0   4  11  570.04   32.80
   4  -4  11  561.04   35.30
  -5   3 -11  609.14   32.50
   3   2 -11  570.04   37.20
   2  -5 -11  568.64   35.70
  -5   3 -11  619.84   36.40
   5  -3  11  572.54   36.20
  -2   5  11  586.04   35.90
  -3  -2  11  585.44   38.50
   0   0 -12 9363.66  274.57
   0   0 -12 8821.62  270.87
   0   0  12 9296.67  282.87
   0   0  12 9021.50  279.17
   2  -1 -12 5949.60  191.28
  -1  -1 -12 6151.48  183.28
  -1   2 -12 5955.40  186.08
   1  -2  12 5967.50  195.38
  -2   1  12 6054.09  194.18
   1   1  12 6074.99  187.28
   1  -2 -12 4897.01  155.78
   1   1 -12 4807.02  155.68
   1   1 -12 4811.22  148.59
  -2   1 -12 5024.30  152.28
   2  -1  12 4631.54  157.18
  -1   2  12 4732.83  152.78
   2  -1  12 5008.50  151.08
  -1  -1  12 4714.63  160.98
   4  -2 -12 4338.47  147.09
  -2  -2 -12 4329.97  135.29
  -2   4 -12 4174.18  139.39
   2  -4  12 4331.57  148.79
  -4   2  12 4229.98  146.99
   2   2  12 4171.18  142.49
  -3   0 -12 7612.24  220.58
   0   3 -12 7461.15  225.38
   0   3 -12 7261.37  220.18
   3  -3 -12 7012.50  228.98
  -3   3  12 6930.81  224.98
  -3   3  12 7196.18  226.88
   0  -3  12 6989.80  231.18
   3   0  12 6997.90  223.78
   0  -3 -12 7557.94  217.48
   0  -3 -12 7388.86  225.28
   3   0 -12 7358.36  230.78
  -3   3 -12 7095.59  224.28
   0   3  12 7006.30  225.88
   3  -3  12 7089.09  231.88
  -3   0  12 7146.39  233.88
   2   2 -12 5078.59  168.08
   2  -4 -12 5004.00  166.78
  -4   2 -12 5035.30  161.58
   4  -2  12 4963.90  167.08
   4  -2  12 5072.49  163.58
  -2   4  12 4863.11  165.58
  -2  -2  12 5067.09  172.48
   1  -1 -13  783.52   39.00
   0   1 -13  889.71   36.60
  -1   0 -13  858.71   36.00
   0   1 -13  866.31   38.30
  -1   1  13  877.71   42.00
   1   0  13  903.81   36.70
   1   0  13  865.41   40.60
   0  -1  13  891.11   43.40
  -1   3 -13  235.28   17.70
   3  -2 -13  207.38   20.00
  -2  -1 -13  215.28   15.80
  -3   2  13  270.27   21.90
   1  -3  13  267.37   23.30
   2   1  13  239.78   19.20
   2   0 -13  407.66   27.30
   0  -2 -13  417.46   24.80
   0  -2 -13  419.86   21.10
  -2   2 -13  458.15   25.30
   0   2  13  464.75   25.80
  -2   0  13  461.05   30.30
   2  -2  13  467.75   29.70
   1   2 -13  875.51   36.70
  -3   1 -13  921.81   39.80
   1   2 -13  865.01   42.60
   2  -3 -13  858.01   43.40
   3  -1  13  897.11   43.30
  -1  -2  13  893.31   47.30
   3  -1  13  891.31   40.40
  -2   3  13  835.42   41.10
  -3   4 -13 1233.18   52.39
  -1  -3 -13 1129.59   46.00
   4  -1 -13 1225.68   58.49
  -4   1  13 1206.18   58.49
   3  -4  13 1225.68   58.99
   1   3  13 1211.78   54.29
   3   1 -13  300.47   25.70
  -4   3 -13  335.87   23.40
   1  -4 -13  277.17   23.30
  -1   4  13  324.07   24.40
  -3  -1  13  349.27   28.90
   4  -3  13  342.67   27.10
   1   0 -14 6834.42  208.58
   0  -1 -14 6586.94  200.58
  -1   1 -14 6251.37  202.88
   0  -1 -14 6760.22  212.68
   0   1  14 6703.83  203.68
  -1   0  14 6576.94  213.78
   1  -1  14 6495.35  212.68
   0   2 -14 5470.75  169.18
  -2   0 -14 5429.66  169.28
   0   2 -14 5476.35  172.88
   2  -2 -14 5215.28  176.18
   0  -2  14 5388.76  181.58
   2   0  14 5461.95  171.58
  -2   2  14 5295.87  176.88
   3  -1 -14 5455.25  181.98
  -1  -2 -14 5711.03  170.38
  -2   3 -14 5566.24  175.58
   1   2  14 5393.16  176.98
  -3   1  14 5446.35  185.18
   2  -3  14 5319.77  184.08
   2   1 -14 5604.34  179.58
  -3   2 -14 5429.86  172.58
   1  -3 -14 5597.34  176.58
  -1   3  14 5136.29  173.78
   3  -2  14 5292.37  179.98
  -2  -1  14 5323.97  184.38
   0   0 -15 1111.09   44.60
   0   0  15 1113.09   52.09
  -1   2 -15   14.20    6.50
  -1  -1 -15   11.30    5.40
   2  -1 -15    6.00    6.00
  -2   1  15   38.70   11.20
   1  -2  15   18.50    9.10
   1   1  15   21.60    7.00
  -2   1 -15 1275.87   52.59
   1   1 -15 1297.47   56.09
   1  -2 -15 1226.78   55.19
  -1  -1  15 1324.57   62.19
  -1   2  15 1313.17   53.19
   2  -1  15 1310.47   58.59
   0   3 -15  763.22   36.20
   3  -3 -15  673.43   41.20
  -3   0 -15  748.23   36.30
   3   0  15  758.92   39.50
   0  -3  15  767.72   46.00
   3   0 -15  759.92   44.10
  -3   3 -15  818.42   40.70
   3  -3  15  808.12   46.10
   0   3  15  808.62   41.40
  -3   0  15  800.42   47.20
   1  -1 -16 4976.80  164.28
   0   1 -16 5132.79  159.28
  -1   0 -16 5015.80  159.38
   0  -1  16 5049.99  172.18
  -1   1  16 4968.00  168.68
   1   0  16 4846.12  165.88
  -2   2 -16 5413.16  175.68
   2   0 -16 5637.94  181.78
   2  -2  16 5383.46  184.98
  -2   0  16 5385.86  187.48
   0   2  16 5443.76  176.48
   1   0 -17  590.54   38.10
  -1   1 -17  588.24   31.70
  -1   0  17  577.44   38.50
   1  -1  17  615.34   38.10
   0   0   0    0.00    0.00

_computing_structure_solution     'SHELXT 2014/5 (Sheldrick, 2014)'
;
_shelx_hkl_checksum   15676

