
#(C) 2020 by FIZ Karlsruhe - Leibniz Institute for Information Infrastructure.  All rights reserved.
data_100080-ICSD
_database_code_ICSD 100080
_audit_creation_date 1980-01-01
_audit_update_record 2015-02-01
_chemical_name_common 'Dicadmium heptagermanium oxide'
_chemical_formula_structural 'Cd2 Ge7 O16'
_chemical_formula_sum 'Cd2 Ge7 O16'
_chemical_name_structure_type Cd2Ge7O16
_exptl_crystal_density_diffrn 5.55
_citation_title 'Die Kristallstruktur der Verbindung Cd2 Ge7 O16'
loop_
_citation_id
_citation_journal_full
_citation_year
_citation_journal_volume
_citation_page_first
_citation_page_last
_citation_journal_id_ASTM
primary 'Monatshefte fuer Chemie' 1977 108 443 449 MOCMB7
loop_
_citation_author_citation_id
_citation_author_name
primary 'Plattner, E.'
primary 'Voellenkle, H.'
_cell_length_a 11.31
_cell_length_b 11.31
_cell_length_c 4.63
_cell_angle_alpha 90.
_cell_angle_beta 90.
_cell_angle_gamma 90.
_cell_volume 592.25
_cell_formula_units_Z 2
_space_group_name_H-M_alt 'P -4 b 2'
_space_group_IT_number 117
loop_
_space_group_symop_id
_space_group_symop_operation_xyz
1 '-y+1/2, -x+1/2, -z'
2 'y, -x, -z'
3 'y+1/2, x+1/2, -z'
4 '-y, x, -z'
5 'x+1/2, -y+1/2, z'
6 '-x, -y, z'
7 '-x+1/2, y+1/2, z'
8 'x, y, z'
loop_
_atom_type_symbol
_atom_type_oxidation_number
Cd2+ 2
Ge4+ 4
O2- -2
loop_
_atom_site_label
_atom_site_type_symbol
_atom_site_symmetry_multiplicity
_atom_site_Wyckoff_symbol
_atom_site_fract_x
_atom_site_fract_y
_atom_site_fract_z
_atom_site_B_iso_or_equiv
_atom_site_occupancy
Cd1 Cd2+ 4 g 0.1624(4) 0.6624(4) 0 1.7 1.
Ge1 Ge4+ 2 d 0 0.5 0.5 0.9 1.
Ge2 Ge4+ 4 g 0.3645(4) 0.8645(4) 0 0.6 1.
Ge3 Ge4+ 8 i 0.0707(2) 0.1856(2) 0.5100(16) 0.6 1.
O1 O2- 8 i 0.003(2) 0.383(2) 0.744(6) 1.1 1.
O2 O2- 8 i 0.034(2) 0.277(2) 0.288(5) 0.8 1.
O3 O2- 8 i 0.174(2) 0.229(2) 0.769(5) 0.8 1.
O4 O2- 8 i 0.138(2) 0.062(2) 0.343(6) 0.7 1.
#End of TTdata_100080-ICSD