
#(C) 2020 by FIZ Karlsruhe - Leibniz Institute for Information Infrastructure.  All rights reserved.
data_100203-ICSD
_database_code_ICSD 100203
_audit_creation_date 1980-01-01
_audit_update_record 1987-05-21
_chemical_name_common 'Tetrapotassium barium catena-germanate'
_chemical_formula_structural 'K4 Ba Ge3 O9'
_chemical_formula_sum 'Ba1 Ge3 K4 O9'
_exptl_crystal_density_diffrn 3.69
_citation_title 'Die Kristallstruktur der Verbindung K4 Ba Ge3 O9'
loop_
_citation_id
_citation_journal_full
_citation_year
_citation_journal_volume
_citation_page_first
_citation_page_last
_citation_journal_id_ASTM
primary 'Zeitschrift fuer Kristallographie' 1977 146 293 302 ZEKRDZ
loop_
_citation_author_citation_id
_citation_author_name
primary 'Baumgartner, O.'
primary 'Voellenkle, H.'
_cell_length_a 8.364(2)
_cell_length_b 11.399(2)
_cell_length_c 12.366(2)
_cell_angle_alpha 90.
_cell_angle_beta 90.
_cell_angle_gamma 90.61(2)
_cell_volume 1178.92
_cell_formula_units_Z 4
_space_group_name_H-M_alt 'B 1 1 2'
_space_group_IT_number 5
loop_
_space_group_symop_id
_space_group_symop_operation_xyz
1 '-x, -y, z'
2 'x, y, z'
3 '-x+1/2, -y, z+1/2'
4 'x+1/2, y, z+1/2'
loop_
_atom_type_symbol
_atom_type_oxidation_number
Ba2+ 2
Ge4+ 4
K1+ 1
O2- -2
loop_
_atom_site_label
_atom_site_type_symbol
_atom_site_symmetry_multiplicity
_atom_site_Wyckoff_symbol
_atom_site_fract_x
_atom_site_fract_y
_atom_site_fract_z
_atom_site_B_iso_or_equiv
_atom_site_occupancy
Ba1 Ba2+ 4 c 0.9900(3) 0.2312(2) 0.8103 . 1.
Ge1 Ge4+ 4 c 0.3040(5) 0.0313(4) 0.7960(4) . 1.
Ge2 Ge4+ 4 c 0.3056(5) 0.4746(4) 0.7906(4) . 1.
Ge3 Ge4+ 4 c 0.2785(5) 0.2576(4) 0.6138(5) . 1.
K1 K1+ 2 a 0 0 0.0502(11) 0.4 1.
K2 K1+ 2 a 0 0 0.5658(15) 2.1 1.
K3 K1+ 2 b 0 0.5 0.5863(16) 2.6 1.
K4 K1+ 2 b 0 0.5 0.0000(16) 2.1 1.
K5 K1+ 4 c 0.0530(14) 0.2541(10) 0.3639(10) 2.1 1.
K6 K1+ 4 c 0.2263(15) 0.2523(11) 0.0674(12) 2.5 1.
O1 O2- 2 a 0 0 0.346(4) 1.6 1.
O2 O2- 2 b 0 0.5 0.345(4) 1.6 1.
O3 O2- 4 c 0.343(5) 0.155(4) 0.716(4) 3.4 1.
O4 O2- 4 c 0.332(5) 0.401(4) 0.657(4) 3.3 1.
O5 O2- 4 c 0.082(4) 0.250(3) 0.590(3) 1.8 1.
O6 O2- 4 c 0.395(4) 0.239(3) 0.503(3) 2. 1.
O7 O2- 4 c 0.201(4) 0.076(3) 0.904(3) 2.2 1.
O8 O2- 4 c 0.214(5) 0.386(3) 0.885(3) 2.9 1.
O9 O2- 4 c 0.272(4) 0.084(3) 0.220(3) 2.7 1.
O10 O2- 4 c 0.281(4) 0.392(3) 0.259(3) 1.7 1.
loop_
_atom_site_aniso_label
_atom_site_aniso_type_symbol
_atom_site_aniso_B_11
_atom_site_aniso_B_22
_atom_site_aniso_B_33
_atom_site_aniso_B_12
_atom_site_aniso_B_13
_atom_site_aniso_B_23
Ba1 Ba2+ 1.16(10) 1.65(10) 1.04(12) 0.32(7) -.05(10) -.06(11)
Ge1 Ge4+ 1.13(16) 1.29(16) 0.31(18) 0.62(12) 0.17(16) -.13(16)
Ge2 Ge4+ 1.13(17) 1.08(16) 0.69(21) 0.42(12) -.27(15) -.09(15)
Ge3 Ge4+ 0.91(17) 1.01(16) 0.51(17) 0.24(12) 0.30(15) 0.17(14)
#End of TTdata_100203-ICSD