
#(C) 2020 by FIZ Karlsruhe - Leibniz Institute for Information Infrastructure.  All rights reserved.
data_100275-ICSD
_database_code_ICSD 100275
_audit_creation_date 1980-01-01
_audit_update_record 2006-04-01
_chemical_name_common 'Trilead oxide germanate'
_chemical_formula_structural 'Pb3 O (Ge O4)'
_chemical_formula_sum 'Ge1 O5 Pb3'
_exptl_crystal_density_diffrn 8.56
_citation_title
'Die Kristallstruktur der ferroischen Verbindung Pb3 (O (Ge O4))'
loop_
_citation_id
_citation_journal_full
_citation_year
_citation_journal_volume
_citation_page_first
_citation_page_last
_citation_journal_id_ASTM
primary 'Zeitschrift fuer Kristallographie' 1979 149 227 240 ZEKRDZ
loop_
_citation_author_citation_id
_citation_author_name
primary 'Otto, H.H.'
_cell_length_a 5.260(1)
_cell_length_b 10.437(2)
_cell_length_c 5.477(1)
_cell_angle_alpha 90.
_cell_angle_beta 92.55(3)
_cell_angle_gamma 90.
_cell_volume 300.38
_cell_formula_units_Z 2
_space_group_name_H-M_alt 'P 1 21 1'
_space_group_IT_number 4
loop_
_space_group_symop_id
_space_group_symop_operation_xyz
1 '-x, y+1/2, -z'
2 'x, y, z'
loop_
_atom_type_symbol
_atom_type_oxidation_number
Pb2+ 2
Ge4+ 4
O2- -2
loop_
_atom_site_label
_atom_site_type_symbol
_atom_site_symmetry_multiplicity
_atom_site_Wyckoff_symbol
_atom_site_fract_x
_atom_site_fract_y
_atom_site_fract_z
_atom_site_U_iso_or_equiv
_atom_site_occupancy
Pb1 Pb2+ 2 a -.0223(3) 0 0.0375(3) . 1.
Pb2 Pb2+ 2 a 0.4909(4) 0.2500(2) -.0170(5) . 1.
Pb3 Pb2+ 2 a 0.5136(3) 0.4857(2) 0.4989(3) . 1.
Ge1 Ge4+ 2 a 0.0206(8) 0.2567(5) 0.4555(8) 0.0109(11) 1.
O1 O2- 2 a -.300(3) 0.291(3) 0.425(5) 0.018(8) 1.
O2 O2- 2 a 0.071(5) 0.0917(16) 0.475(5) 0.022(7) 1.
O3 O2- 2 a 0.171(5) 0.314(3) 0.192(4) 0.027(6) 1.
O4 O2- 2 a 0.164(5) 0.335(3) 0.704(4) 0.017(6) 1.
O5 O2- 2 a 0.377(6) -.043(3) 0.100(6) 0.018(6) 1.
loop_
_atom_site_aniso_label
_atom_site_aniso_type_symbol
_atom_site_aniso_U_11
_atom_site_aniso_U_22
_atom_site_aniso_U_33
_atom_site_aniso_U_12
_atom_site_aniso_U_13
_atom_site_aniso_U_23
Pb1 Pb2+ 0.0091(5) 0.0121(8) 0.0253(9) 0.0018(6) 0.0022(4) 0.0006(7)
Pb2 Pb2+ 0.0105(6) 0.013(1) 0.0289(9) 0.0014(5) 0.0045(6) -.0011(6)
Pb3 Pb2+ 0.0124(6) 0.0150(8) 0.0241(6) 0.0031(7) 0.0018(5) -.0003(7)
#End of TTdata_100275-ICSD