
#(C) 2020 by FIZ Karlsruhe - Leibniz Institute for Information Infrastructure.  All rights reserved.
data_10443-ICSD
_database_code_ICSD 10443
_audit_creation_date 1980-12-31
_audit_update_record 2002-04-01
_chemical_name_common 'Potassium tetrakis(chlorosulfato(VI))borate'
_chemical_formula_structural 'K (B (S O3 Cl)4)'
_chemical_formula_sum 'B1 Cl4 K1 O12 S4'
_exptl_crystal_density_diffrn 2.09
_citation_title 'Potassium tetrachlorosulfatoborate: change in space group'
loop_
_citation_id
_citation_journal_full
_citation_year
_citation_journal_volume
_citation_page_first
_citation_page_last
_citation_journal_id_ASTM
primary

;
Acta Crystallographica, Section B: Structural Crystallography and Crystal
Chemistry
; 1980 36 219 220 ACBCAR
loop_
_citation_author_citation_id
_citation_author_name
primary 'Marsh, R.E.'
primary 'Schomaker, V.'
_cell_length_a 8.147
_cell_length_b 20.08499
_cell_length_c 10.513
_cell_angle_alpha 90.
_cell_angle_beta 109.32
_cell_angle_gamma 90.
_cell_volume 1623.39
_cell_formula_units_Z 4
_space_group_name_H-M_alt 'C 1 c 1'
_space_group_IT_number 9
loop_
_space_group_symop_id
_space_group_symop_operation_xyz
1 'x, -y, z+1/2'
2 'x, y, z'
3 'x+1/2, -y+1/2, z+1/2'
4 'x+1/2, y+1/2, z'
loop_
_atom_type_symbol
_atom_type_oxidation_number
K1+ 1
B3+ 3
S6+ 6
Cl1- -1
O2- -2
S6+ 6
Cl1- -1
O2- -2
S6+ 6
Cl1- -1
O2- -2
S6+ 6
Cl1- -1
O2- -2
loop_
_atom_site_label
_atom_site_type_symbol
_atom_site_symmetry_multiplicity
_atom_site_Wyckoff_symbol
_atom_site_fract_x
_atom_site_fract_y
_atom_site_fract_z
_atom_site_B_iso_or_equiv
_atom_site_occupancy
K1 K1+ 4 a 0.4312 0.0835 -.4034 . 1.
B1 B3+ 4 a -.0006 0.1189 -.0003 . 1.
S1 S6+ 4 a -.1676 0.2232 0.059 . 1.
Cl1 Cl1- 4 a -.4044 0.2449 -.06 . 1.
O1 O2- 4 a -.114 0.1776 -.0366 . 1.
O2 O2- 4 a -.0703 0.2826 0.077 . 1.
O3 O2- 4 a -.1755 0.189 0.1726 . 1.
S2 S6+ 4 a 0.0996 0.1486 -.2122 . 1.
Cl2 Cl1- 4 a -.1309 0.176 -.3437 . 1.
O4 O2- 4 a 0.0467 0.1009 -.1186 . 1.
O5 O2- 4 a 0.1827 0.1108 -.2853 . 1.
O6 O2- 4 a 0.1796 0.207 -.1418 . 1.
S3 S6+ 4 a -.2319 0.0186 -.0524 . 1.
Cl3 Cl1- 4 a -.1066 -.0479 -.1256 . 1.
O7 O2- 4 a -.0834 0.061 0.0385 . 1.
O8 O2- 4 a -.3055 0.0172 0.0311 . 1.
O9 O2- 4 a -.3374 0.0564 -.161 . 1.
S4 S6+ 4 a 0.2903 0.0908 0.202 . 1.
Cl4 Cl1- 4 a 0.4912 0.1493 0.236 . 1.
O10 O2- 4 a 0.148 0.137 0.1177 . 1.
O11 O2- 4 a 0.3098 0.0352 0.1262 . 1.
O12 O2- 4 a 0.2718 0.079 0.327 . 1.
#End of TTdata_10443-ICSD