
#(C) 2020 by FIZ Karlsruhe - Leibniz Institute for Information Infrastructure.  All rights reserved.
data_12134-ICSD
_database_code_ICSD 12134
_audit_creation_date 1986-08-08
_audit_update_record 2013-08-01
_chemical_name_common 'Sodium borodisilicate dihydroxide'
_chemical_formula_structural 'Na (B Si2 O5) (O H)2'
_chemical_formula_sum 'H2 B1 Na1 O7 Si2'
_chemical_name_structure_type NaBSi2O5(OH)2
_chemical_name_mineral Searlesite
_exptl_crystal_density_diffrn 2.86
_citation_title

;
Structural chemistry of borosilicates, part II: Searlesite, Na B Si2 O5 (O H):
Absolute configuration, hydrogen locations, and refinement of the structure
;
loop_
_citation_id
_citation_journal_full
_citation_year
_citation_journal_volume
_citation_page_first
_citation_page_last
_citation_journal_id_ASTM
primary 'American Mineralogist' 1976 61 123 129 AMMIAY
loop_
_citation_author_citation_id
_citation_author_name
primary 'Ghose, S.'
primary 'Wan, C.'
_cell_length_a 7.9814(12)
_cell_length_b 6.0657(8)
_cell_length_c 4.9054(4)
_cell_angle_alpha 90.
_cell_angle_beta 93.95(1)
_cell_angle_gamma 90.
_cell_volume 236.92
_cell_formula_units_Z 2
_space_group_name_H-M_alt 'P 1 21 1'
_space_group_IT_number 4
loop_
_space_group_symop_id
_space_group_symop_operation_xyz
1 '-x, y+1/2, -z'
2 'x, y, z'
loop_
_atom_type_symbol
_atom_type_oxidation_number
Na1+ 1
B3+ 3
Si4+ 4
O2- -2
H1+ 1
loop_
_atom_site_label
_atom_site_type_symbol
_atom_site_symmetry_multiplicity
_atom_site_Wyckoff_symbol
_atom_site_fract_x
_atom_site_fract_y
_atom_site_fract_z
_atom_site_B_iso_or_equiv
_atom_site_occupancy
Na1 Na1+ 2 a 0.4390(1) 0 0.9812(2) . 1.
B1 B3+ 2 a 0.3514(2) 0.7084(3) 0.3984(3) . 1.
Si1 Si4+ 2 a 0.13465(6) 0.41571(18) 0.21207(9) . 1.
Si2 Si4+ 2 a 0.08340(6) 0.98671(18) 0.31053(8) . 1.
O1 O2- 2 a 0.1651(2) 0.1903(3) 0.2492(4) . 1.
O2 O2- 2 a 0.0851(2) 0.4610(3) 0.8931(2) . 1.
O3 O2- 2 a 0.2202(2) 0.8314(3) 0.2566(3) . 1.
O4 O2- 2 a 0.3114(2) 0.5110(2) 0.3087(3) . 1.
O5 O2- 2 a 0.0222(2) 0.9842(3) 0.6177(3) . 1.
O6 O2- 2 a 0.3604(2) 0.7261(3) 0.6953(3) . 1.
O7 O2- 2 a 0.4858(2) 0.2563(3) 0.7005(3) . 1.
H1 H1+ 2 a 0.267(4) 0.699(6) 0.769(7) -.9(5) 1.
H2 H1+ 2 a 0.578(5) 0.424(6) 0.416(8) -.5(6) 1.
#End of TTdata_12134-ICSD