####################################################################### 
# 
# This file contains crystal structure data downloaded from the 
# Cambridge Structural Database (CSD) hosted by the Cambridge 
# Crystallographic Data Centre (CCDC) in cooperation with FIZ Karlsruhe.
# 
# Please note that these data are only for research purposes or private use.
# For detailed information please see under Terms & Conditions.
# Full information about CCDC and FIZ Karlsruhe data access policies and 
# citation guidelines are available at http://www.ccdc.cam.ac.uk/access/V1
# 
# Audit and citation data items may have been added by FIZ Karlsruhe. 
# Please retain this information to preserve the provenance of 
# this file and to allow appropriate attribution of the data. 
# 
#######################################################################

data_14018-ICSD
_database_code_depnum_ccdc_archive 'CCDC 1595433'
loop_
_citation_id
_citation_doi
_citation_year
1 10.1002/zaac.19794560103 1979
_audit_update_record             
;
2018-02-26 deposited with the CCDC.	2022-10-29 downloaded from the CCDC.
;
_database_code_ICSD              14018
_chemical_name_systematic        'Thallium Hexaiodomercurate'
_chemical_formula_sum            'Hg1 I6 Tl4'
_cell_length_a                   9.446
_cell_length_b                   9.446
_cell_length_c                   9.26
_cell_angle_alpha                90
_cell_angle_beta                 90
_cell_angle_gamma                90
_cell_volume                     826.24
_cell_formula_units_Z            2
_symmetry_space_group_name_H-M   'P 4/m n c'
_symmetry_Int_Tables_number      128
_symmetry_cell_setting           tetragonal
_refine_ls_R_factor_all          0.076
loop_
_symmetry_equiv_pos_site_id
_symmetry_equiv_pos_as_xyz
1 'y+1/2, x+1/2, -z+1/2'
2 '-y+1/2, -x+1/2, -z+1/2'
3 '-y, x, -z'
4 'y, -x, -z'
5 'x+1/2, -y+1/2, -z+1/2'
6 '-x+1/2, y+1/2, -z+1/2'
7 'x, y, -z'
8 '-x, -y, -z'
9 '-y+1/2, -x+1/2, z+1/2'
10 'y+1/2, x+1/2, z+1/2'
11 'y, -x, z'
12 '-y, x, z'
13 '-x+1/2, y+1/2, z+1/2'
14 'x+1/2, -y+1/2, z+1/2'
15 '-x, -y, z'
16 'x, y, z'
loop_
_atom_site_label
_atom_site_type_symbol
_atom_site_fract_x
_atom_site_fract_y
_atom_site_fract_z
Tl1 Tl1+ 0.3536 0.8536 0.25
Hg1 Hg2+ 0 0 0
I1 I1- 0 0 0.2848
I2 I1- 0.3306 0.1456 0

#End of data_14018-ICSD


