
#(C) 2020 by FIZ Karlsruhe - Leibniz Institute for Information Infrastructure.  All rights reserved.
data_14174-ICSD
_database_code_ICSD 14174
_audit_creation_date 1980-12-31
_chemical_name_common 'Dibarium zinc mue-oxo-bis(trithiogermanate)'
_chemical_formula_structural 'Ba2 Zn Ge2 S6 O'
_chemical_formula_sum 'Ba2 Ge2 O1 S6 Zn1'
_chemical_name_structure_type Melilite#Ca2MgSi2O7
_exptl_crystal_density_diffrn 3.85
_citation_title
'Ba2 Zn Ge2 S6 O: Ein neues Oxidsulfid mit Tetraedergerueststruktur'
loop_
_citation_id
_citation_journal_full
_citation_year
_citation_journal_volume
_citation_page_first
_citation_page_last
_citation_journal_id_ASTM
primary

;
Zeitschrift fuer Naturforschung, Teil B: Anorganische Chemie, Organische
Chemie
; 1980 35 672 675 ZNBAD2
loop_
_citation_author_citation_id
_citation_author_name
primary 'Teske, C.L.'
_cell_length_a 9.6359(22)
_cell_length_b 9.6359(22)
_cell_length_c 6.4506(26)
_cell_angle_alpha 90.
_cell_angle_beta 90.
_cell_angle_gamma 90.
_cell_volume 598.94
_cell_formula_units_Z 2
_space_group_name_H-M_alt 'P -4 21 m'
_space_group_IT_number 113
loop_
_space_group_symop_id
_space_group_symop_operation_xyz
1 '-y+1/2, -x+1/2, z'
2 'y, -x, -z'
3 'y+1/2, x+1/2, z'
4 '-y, x, -z'
5 'x+1/2, -y+1/2, -z'
6 '-x, -y, z'
7 '-x+1/2, y+1/2, -z'
8 'x, y, z'
loop_
_atom_type_symbol
_atom_type_oxidation_number
Ba2+ 2
Zn2+ 2
Ge4+ 4
S2- -2
O2- -2
loop_
_atom_site_label
_atom_site_type_symbol
_atom_site_symmetry_multiplicity
_atom_site_Wyckoff_symbol
_atom_site_fract_x
_atom_site_fract_y
_atom_site_fract_z
_atom_site_U_iso_or_equiv
_atom_site_occupancy
Ba1 Ba2+ 4 e 0.1603(1) 0.6603(1) 0.5022(3) 0.013 1.
Zn1 Zn2+ 2 a 0 0 0 0.013 1.
Ge1 Ge4+ 4 e 0.3749(2) 0.8749(2) 0.9304(3) 0.009 1.
S1 S2- 4 e 0.3647(4) 0.8647(4) 0.2635(8) 0.016 1.
S2 S2- 8 f 0.3200(4) 0.4379(4) 0.2282(5) 0.012 1.
O1 O2- 2 c 0 0.5 0.1830(31) 0.009 1.
#End of TTdata_14174-ICSD