
#(C) 2020 by FIZ Karlsruhe - Leibniz Institute for Information Infrastructure.  All rights reserved.
data_14344-ICSD
_database_code_ICSD 14344
_audit_creation_date 1980-01-01
_audit_update_record 2012-02-01
_chemical_name_common 'Lithium iodate(V)'
_chemical_formula_structural 'Li (I O3)'
_chemical_formula_sum 'I1 Li1 O3'
_chemical_name_structure_type LiIO3
_exptl_crystal_density_diffrn 4.49
_citation_title 'Reinvestigation of the crystal structure of lithium iodate'
loop_
_citation_id
_citation_journal_full
_citation_year
_citation_journal_volume
_citation_page_first
_citation_page_last
_citation_journal_id_ASTM
primary 'Acta Crystallographica' 1966 21 841 843 ACCRA9
loop_
_citation_author_citation_id
_citation_author_name
primary 'de Boer, J.L.'
primary 'van Bolhuis, F.'
primary 'Olthof-Hazekamp, R.'
primary 'Vos, A.'
_cell_length_a 5.478(3)
_cell_length_b 5.478(3)
_cell_length_c 5.170(2)
_cell_angle_alpha 90.
_cell_angle_beta 90.
_cell_angle_gamma 120.
_cell_volume 134.36
_cell_formula_units_Z 2
_space_group_name_H-M_alt 'P 63'
_space_group_IT_number 173
loop_
_space_group_symop_id
_space_group_symop_operation_xyz
1 'x-y, x, z+1/2'
2 'y, -x+y, z+1/2'
3 '-x, -y, z+1/2'
4 '-x+y, -x, z'
5 '-y, x-y, z'
6 'x, y, z'
loop_
_atom_type_symbol
_atom_type_oxidation_number
Li1+ 1
I5+ 5
O2- -2
loop_
_atom_site_label
_atom_site_type_symbol
_atom_site_symmetry_multiplicity
_atom_site_Wyckoff_symbol
_atom_site_fract_x
_atom_site_fract_y
_atom_site_fract_z
_atom_site_B_iso_or_equiv
_atom_site_occupancy
Li1 Li1+ 2 a 0 0 0.661 . 1.
I1 I5+ 2 b 0.3333 0.6667 0.25 . 1.
O1 O2- 6 c 0.3425(8) 0.0940(8) 0.9152(25) . 1.
loop_
_atom_site_aniso_label
_atom_site_aniso_type_symbol
_atom_site_aniso_B_11
_atom_site_aniso_B_22
_atom_site_aniso_B_33
_atom_site_aniso_B_12
_atom_site_aniso_B_13
_atom_site_aniso_B_23
I1 I5+ 0.52 0.52 0.45 0.26 0 0
O1 O2- 0.68 1.05 0.98 0.25 0.18 0.22
#End of TTdata_14344-ICSD