
#(C) 2020 by FIZ Karlsruhe - Leibniz Institute for Information Infrastructure.  All rights reserved.
data_14383-ICSD
_database_code_ICSD 14383
_audit_creation_date 1980-01-01
_audit_update_record 2012-02-01
_chemical_name_common 'Strontium tecto-heptaoxotetraborate'
_chemical_formula_structural 'Sr (B4 O7)'
_chemical_formula_sum 'B4 O7 Sr1'
_chemical_name_structure_type SrB4O7
_exptl_crystal_density_diffrn 4.01
_citation_title

;
The crystal structure of the strontium and lead tetraborates, Sr O (B2 O3)2
and Pb O (B2 O3)2
;
loop_
_citation_id
_citation_journal_full
_citation_year
_citation_journal_volume
_citation_page_first
_citation_page_last
_citation_journal_id_ASTM
primary 'Acta Crystallographica' 1966 20 274 279 ACCRA9
loop_
_citation_author_citation_id
_citation_author_name
primary 'Perloff, A.'
primary 'Block, S.'
_cell_length_a 4.237(4)
_cell_length_b 4.431(4)
_cell_length_c 10.706(10)
_cell_angle_alpha 90.
_cell_angle_beta 90.
_cell_angle_gamma 90.
_cell_volume 201.
_cell_formula_units_Z 2
_space_group_name_H-M_alt 'P 21 n m'
_space_group_IT_number 31
loop_
_space_group_symop_id
_space_group_symop_operation_xyz
1 'x+1/2, -y, z+1/2'
2 'x+1/2, -y, -z+1/2'
3 'x, y, -z'
4 'x, y, z'
loop_
_atom_type_symbol
_atom_type_oxidation_number
Sr2+ 2
O2- -2
B3+ 3
loop_
_atom_site_label
_atom_site_type_symbol
_atom_site_symmetry_multiplicity
_atom_site_Wyckoff_symbol
_atom_site_fract_x
_atom_site_fract_y
_atom_site_fract_z
_atom_site_B_iso_or_equiv
_atom_site_occupancy
Sr1 Sr2+ 2 a 0 0.2119(3) 0 0.41 1.
O1 O2- 2 a 0.585(5) 0.772(3) 0 0.75 1.
O2 O2- 4 b 0.547(4) 0.357(2) 0.141(1) 0.63 1.
O3 O2- 4 b 0.144(4) 0.725(2) 0.135(1) 0.7 1.
O4 O2- 4 b 0.147(3) 0.132(2) 0.277(1) 0.53 1.
B1 B3+ 4 b -.041(9) 0.327(3) 0.378(1) 0.68 1.
B2 B3+ 4 b -.006(12) 0.823(3) 0.248(1) 0.76 1.
#End of TTdata_14383-ICSD