
#(C) 2020 by FIZ Karlsruhe - Leibniz Institute for Information Infrastructure.  All rights reserved.
data_150328-ICSD
_database_code_ICSD 150328
_audit_creation_date 2006-04-01
_chemical_name_common 'Tribarium borate phosphate(V)'
_chemical_formula_structural 'Ba3 (B O3) (P O4)'
_chemical_formula_sum 'B1 Ba3 O7 P1'
_exptl_crystal_density_diffrn 4.88
_citation_title
'Ab initio structure determination of new compound Ba3 (B O3) (P O4)'
loop_
_citation_id
_citation_journal_full
_citation_year
_citation_journal_volume
_citation_page_first
_citation_page_last
_citation_journal_id_ASTM
primary 'Journal of Solid State Chemistry' 2004 177 3454 3459 JSSCBI
loop_
_citation_author_citation_id
_citation_author_name
primary 'Ma, H.W.'
primary 'Liang, J.-K.'
primary 'Wu, L.'
primary 'Liu, G.-Y.'
primary 'Rao, G.H.'
primary 'Chen, X.-L.'
_cell_length_a 5.4898(1)
_cell_length_b 5.4898(1)
_cell_length_c 14.7551(1)
_cell_angle_alpha 90.
_cell_angle_beta 90.
_cell_angle_gamma 120.
_cell_volume 385.11
_cell_formula_units_Z 2
_space_group_name_H-M_alt 'P 63 m c'
_space_group_IT_number 186
loop_
_space_group_symop_id
_space_group_symop_operation_xyz
1 '-x, -x+y, z+1/2'
2 'x-y, -y, z+1/2'
3 'y, x, z+1/2'
4 'x-y, x, z+1/2'
5 'y, -x+y, z+1/2'
6 '-x, -y, z+1/2'
7 'x, x-y, z'
8 '-x+y, y, z'
9 '-y, -x, z'
10 '-x+y, -x, z'
11 '-y, x-y, z'
12 'x, y, z'
loop_
_atom_type_symbol
_atom_type_oxidation_number
Ba2+ 2
P5+ 5
B3+ 3
O2- -2
loop_
_atom_site_label
_atom_site_type_symbol
_atom_site_symmetry_multiplicity
_atom_site_Wyckoff_symbol
_atom_site_fract_x
_atom_site_fract_y
_atom_site_fract_z
_atom_site_B_iso_or_equiv
_atom_site_occupancy
Ba1 Ba2+ 2 a 0 0 0.2165(1) 1.030(17) 1.
Ba2 Ba2+ 2 b 0.3333 0.6667 0.0338(2) 1.030(17) 1.
Ba3 Ba2+ 2 b 0.3333 0.6667 0.3875(2) 1.030(17) 1.
P1 P5+ 2 a 0 0 0 0.971(67) 1.
B1 B3+ 2 b 0.3333 0.6667 0.7540(3) 1.405(300) 1.
O1 O2- 6 c 0.5230(0) 0.4770(0) 0.2540(3) 1.570(64) 1.
O2 O2- 6 c 0.8478(0) 0.1522(0) 0.0345(0) 1.570(64) 1.
O3 O2- 2 a 0 0 0.3960(0) 1.570(64) 1.
#End of TTdata_150328-ICSD