
#(C) 2020 by FIZ Karlsruhe - Leibniz Institute for Information Infrastructure.  All rights reserved.
data_154105-ICSD
_database_code_ICSD 154105
_audit_creation_date 2007-04-01
_chemical_name_common 'Barium bismuth borate oxide'
_chemical_formula_structural 'Ba Bi (B O3) O'
_chemical_formula_sum 'B1 Ba1 Bi1 O4'
_chemical_name_structure_type KNiPO4
_exptl_crystal_density_diffrn 6.54
_citation_title 'Ba Bi B O4, a novel non-centrosymmetric borate oxide'
loop_
_citation_id
_citation_journal_full
_citation_year
_citation_journal_volume
_citation_page_first
_citation_page_last
_citation_journal_id_ASTM
primary 'Solid State Sciences' 2005 7 1055 1061 SSSCFJ
loop_
_citation_author_citation_id
_citation_author_name
primary 'Barbier, J.'
primary 'Penin, N.'
primary 'Denoyer, A.'
primary 'Cranswick, L.M.D.'
_cell_length_a 8.5817(7)
_cell_length_b 9.6802(7)
_cell_length_c 5.1505(4)
_cell_angle_alpha 90.
_cell_angle_beta 90.
_cell_angle_gamma 90.
_cell_volume 427.87
_cell_formula_units_Z 4
_space_group_name_H-M_alt 'P n a 21'
_space_group_IT_number 33
loop_
_space_group_symop_id
_space_group_symop_operation_xyz
1 'x+1/2, -y+1/2, z'
2 '-x+1/2, y+1/2, z+1/2'
3 '-x, -y, z+1/2'
4 'x, y, z'
loop_
_atom_type_symbol
_atom_type_oxidation_number
Ba2+ 2
Bi3+ 3
B3+ 3
O2- -2
loop_
_atom_site_label
_atom_site_type_symbol
_atom_site_symmetry_multiplicity
_atom_site_Wyckoff_symbol
_atom_site_fract_x
_atom_site_fract_y
_atom_site_fract_z
_atom_site_B_iso_or_equiv
_atom_site_occupancy
Ba1 Ba2+ 4 a 0.5061(7) 0.3142(5) 0.734(3) 0.36(11) 1.
Bi1 Bi3+ 4 a 0.1937(5) 0.5632(4) 0.75 0.63(9) 1.
B1 B3+ 4 a 0.7984(6) 0.5564(4) 0.75 0.71(10) 1.
O1 O2- 4 a 0.8103(7) 0.4139(5) 0.762(3) 0.88(7) 1.
O2 O2- 4 a 0.2024(8) 0.3751(5) 0.016(1) 0.88(7) 1.
O3 O2- 4 a 0.2141(7) 0.3798(5) 0.491(1) 0.88(7) 1.
O4 O2- 4 a 0.4243(5) 0.5846(5) 0.743(4) 0.88(7) 1.
#End of TTdata_154105-ICSD