
#(C) 2020 by FIZ Karlsruhe - Leibniz Institute for Information Infrastructure.  All rights reserved.
data_155156-ICSD
_database_code_ICSD 155156
_audit_creation_date 2007-04-01
_chemical_name_common 'Potassium diberyllium borate difluoride'
_chemical_formula_structural 'K Be2 (B O3) F2'
_chemical_formula_sum 'B1 Be2 F2 K1 O3'
_chemical_name_structure_type KBe2BO3F2
_exptl_crystal_density_diffrn 2.41
_citation_title 'Hydrothermal growth of K Be2 B O3 F2 crystals'
loop_
_citation_id
_citation_journal_full
_citation_year
_citation_journal_volume
_citation_page_first
_citation_page_last
_citation_journal_id_ASTM
primary 'Journal of Crystal Growth' 2006 293 233 235 JCRGAE
loop_
_citation_author_citation_id
_citation_author_name
primary 'Ye Ning'
primary 'Tang Dingyaun'
_cell_length_a 4.4261(1)
_cell_length_b 4.4261(1)
_cell_length_c 18.7617(7)
_cell_angle_alpha 90.
_cell_angle_beta 90.
_cell_angle_gamma 120.
_cell_volume 318.31
_cell_formula_units_Z 3
_space_group_name_H-M_alt 'R 3 2 H'
_space_group_IT_number 155
loop_
_space_group_symop_id
_space_group_symop_operation_xyz
1 '-x, -x+y, -z'
2 'x-y, -y, -z'
3 'y, x, -z'
4 '-x+y, -x, z'
5 '-y, x-y, z'
6 'x, y, z'
7 '-x+2/3, -x+y+1/3, -z+1/3'
8 'x-y+2/3, -y+1/3, -z+1/3'
9 'y+2/3, x+1/3, -z+1/3'
10 '-x+y+2/3, -x+1/3, z+1/3'
11 '-y+2/3, x-y+1/3, z+1/3'
12 'x+2/3, y+1/3, z+1/3'
13 '-x+1/3, -x+y+2/3, -z+2/3'
14 'x-y+1/3, -y+2/3, -z+2/3'
15 'y+1/3, x+2/3, -z+2/3'
16 '-x+y+1/3, -x+2/3, z+2/3'
17 '-y+1/3, x-y+2/3, z+2/3'
18 'x+1/3, y+2/3, z+2/3'
loop_
_atom_type_symbol
_atom_type_oxidation_number
K1+ 1
F1- -1
O2- -2
B3+ 3
Be2+ 2
loop_
_atom_site_label
_atom_site_type_symbol
_atom_site_symmetry_multiplicity
_atom_site_Wyckoff_symbol
_atom_site_fract_x
_atom_site_fract_y
_atom_site_fract_z
_atom_site_B_iso_or_equiv
_atom_site_occupancy
K1 K1+ 3 a 0 0 0 . 1.
F1 F1- 6 c 0.6667 0.3333 0.05505(8) . 1.
O1 O2- 9 e 0.3333 0.3571(3) 0.1667 . 1.
B1 B3+ 3 b 0.3333 0.6667 0.1667 . 1.
Be1 Be2+ 6 c 0.6667 0.3333 0.13575(14) . 1.
#End of TTdata_155156-ICSD