
#(C) 2020 by FIZ Karlsruhe - Leibniz Institute for Information Infrastructure.  All rights reserved.
data_15564-ICSD
_database_code_ICSD 15564
_audit_creation_date 1980-01-01
_audit_update_record 1988-10-28
_chemical_name_common 'Sodium oxoiodate'
_chemical_formula_structural 'Na I O3'
_chemical_formula_sum 'I1 Na1 O3'
_chemical_name_structure_type Perovskite#GdFeO3
_exptl_crystal_density_diffrn 4.43
_citation_title 'The crystal structure of sodium and ammonium iodate'
loop_
_citation_id
_citation_journal_full
_citation_year
_citation_journal_volume
_citation_page_first
_citation_page_last
_citation_journal_id_ASTM
primary 'Recueil des Travaux Chimiques des Pays-Bas' 1943 62 729 736 RTCPA3
loop_
_citation_author_citation_id
_citation_author_name
primary 'MacGillavry, C.H.'
primary 'Panthaleon van Eck, C.L.'
_cell_length_a 5.74
_cell_length_b 6.37
_cell_length_c 8.11
_cell_angle_alpha 90.
_cell_angle_beta 90.
_cell_angle_gamma 90.
_cell_volume 296.53
_cell_formula_units_Z 4
_space_group_name_H-M_alt 'P b n m'
_space_group_IT_number 62
loop_
_space_group_symop_id
_space_group_symop_operation_xyz
1 '-x+1/2, y+1/2, z'
2 'x, y, -z+1/2'
3 'x+1/2, -y+1/2, z+1/2'
4 '-x, -y, -z'
5 'x+1/2, -y+1/2, -z'
6 '-x, -y, z+1/2'
7 '-x+1/2, y+1/2, -z+1/2'
8 'x, y, z'
loop_
_atom_type_symbol
_atom_type_oxidation_number
I5+ 5
Na1+ 1
O2- -2
loop_
_atom_site_label
_atom_site_type_symbol
_atom_site_symmetry_multiplicity
_atom_site_Wyckoff_symbol
_atom_site_fract_x
_atom_site_fract_y
_atom_site_fract_z
_atom_site_B_iso_or_equiv
_atom_site_occupancy
I1 I5+ 4 c 0.008 0.013 0.25 . 1.
Na1 Na1+ 4 b 0.5 0 0 . 1.
O1 O2- 4 c 0.715 0.11 0.25 . 1.
O2 O2- 8 d 0.14 0.16 0.08 . 1.
#End of TTdata_15564-ICSD