
#(C) 2020 by FIZ Karlsruhe - Leibniz Institute for Information Infrastructure.  All rights reserved.
data_1585-ICSD
_database_code_ICSD 1585
_audit_creation_date 1980-01-01
_audit_update_record 2010-02-01
_chemical_name_common 'Lithium tecto-triborate'
_chemical_formula_structural 'Li (B3 O5)'
_chemical_formula_sum 'B3 Li1 O5'
_chemical_name_structure_type LiB3O5
_exptl_crystal_density_diffrn 2.47
_citation_title 'Zur Kenntnis von Li B3 O5'
loop_
_citation_id
_citation_journal_full
_citation_year
_citation_journal_volume
_citation_page_first
_citation_page_last
_citation_journal_id_ASTM
primary 'Zeitschrift fuer Anorganische und Allgemeine Chemie (1950) (DE)' 1978
439 71 79 ZAACAB
loop_
_citation_author_citation_id
_citation_author_name
primary 'Koenig, H.'
primary 'Hoppe, R.'
_cell_length_a 8.46
_cell_length_b 5.133
_cell_length_c 7.386
_cell_angle_alpha 90.
_cell_angle_beta 90.
_cell_angle_gamma 90.
_cell_volume 320.74
_cell_formula_units_Z 4
_space_group_name_H-M_alt 'P n 21 a'
_space_group_IT_number 33
loop_
_space_group_symop_id
_space_group_symop_operation_xyz
1 'x+1/2, y, -z+1/2'
2 '-x+1/2, y+1/2, z+1/2'
3 '-x, y+1/2, -z'
4 'x, y, z'
loop_
_atom_type_symbol
_atom_type_oxidation_number
Li1+ 1
B3+ 3
O2- -2
loop_
_atom_site_label
_atom_site_type_symbol
_atom_site_symmetry_multiplicity
_atom_site_Wyckoff_symbol
_atom_site_fract_x
_atom_site_fract_y
_atom_site_fract_z
_atom_site_B_iso_or_equiv
_atom_site_occupancy
Li1 Li1+ 4 a 0.0874(11) 0.9587(14) 0.0663(7) . 1.
B1 B3+ 4 a 0.0070(7) 0.8110(9) 0.6634(4) . 1.
B2 B3+ 4 a 0.1950(7) 0.0067(7) 0.4440(5) . 1.
B3 B3+ 4 a 0.1563(6) 0.1899(9) 0.7487(4) . 1.
O1 O2- 4 a 0.0865(4) 0.8030(7) 0.5052(3) . 1.
O2 O2- 4 a 0.1155(4) 0.1544(4) 0.2955(3) . 1.
O3 O2- 4 a 0.0584(4) 0.9863(7) 0.7981(3) . 1.
O4 O2- 4 a 0.2599(4) 0.6907(7) 0.0903(3) . 1.
O5 O2- 4 a 0.8391(4) 0.884 0.1247(3) . 1.
loop_
_atom_site_aniso_label
_atom_site_aniso_type_symbol
_atom_site_aniso_U_11
_atom_site_aniso_U_22
_atom_site_aniso_U_33
_atom_site_aniso_U_12
_atom_site_aniso_U_13
_atom_site_aniso_U_23
Li1 Li1+ 0.0107(13) 0.0167(23) 0.0047(19) 0.0081(33) 0.0000(23) -.0035(23)
B1 B3+ 0.0089(7) 0.0064(9) 0.0115(9) 0.0019(14) -.0017(18) -.0002(12)
B2 B3+ 0.0077(8) 0.0064(12) 0.0091(11) -.0036(17) -.0047(14) -.0032(10)
B3 B3+ 0.0091(8) 0.0117(12) 0.0067(12) -.0001(18) -.0041(16) 0.0005(13)
O1 O2- 0.0101(6) 0.0103(7) 0.0099(8) -.0048(12) 0.0036(10) -.0027(8)
O2 O2- 0.0098(7) 0.0127(9) 0.0067(8) 0.0043(14) 0.0015(10) 0.0003(7)
O3 O2- 0.0109(7) 0.013(1) 0.0085(8) -.0044(12) 0.0019(10) -.0011(7)
O4 O2- 0.0090(6) 0.0085(8) 0.0095(7) 0.0004(12) -.0028(11) -.0013(9)
O5 O2- 0.0105(7) 0.0109(9) 0.0103(8) 0.0009(14) 0.000(1) 0.0032(7)
#End of TTdata_1585-ICSD