
#(C) 2020 by FIZ Karlsruhe - Leibniz Institute for Information Infrastructure.  All rights reserved.
data_16178-ICSD
_database_code_ICSD 16178
_audit_creation_date 1980-01-01
_audit_update_record 2009-02-01
_chemical_name_common 'Potassium difluoroboratodiberyllate'
_chemical_formula_structural 'K (Be2 (B O3) F2)'
_chemical_formula_sum 'B1 Be2 F2 K1 O3'
_chemical_name_structure_type RbBe2BO3F2
_exptl_crystal_density_diffrn 2.38
_citation_title
'Crystal structure of potassium boratofluoroberyllate, K Be2 (B O3) F2'
loop_
_citation_id
_citation_journal_full
_citation_year
_citation_journal_volume
_citation_page_first
_citation_page_last
_citation_journal_id_ASTM
primary Kristallografiya 1970 15 922 925 KRISAJ
loop_
_citation_author_citation_id
_citation_author_name
primary 'Solov'eva, L.P. (Soloveva, L.P.)'
primary 'Bakakin, V.V.'
_cell_length_a 7.718(6)
_cell_length_b 4.444(2)
_cell_length_c 6.790(3)
_cell_angle_alpha 90.
_cell_angle_beta 112.8(1)
_cell_angle_gamma 90.
_cell_volume 214.69
_cell_formula_units_Z 2
_space_group_name_H-M_alt 'C 1 2 1'
_space_group_IT_number 5
loop_
_space_group_symop_id
_space_group_symop_operation_xyz
1 '-x, y, -z'
2 'x, y, z'
3 '-x+1/2, y+1/2, -z'
4 'x+1/2, y+1/2, z'
loop_
_atom_type_symbol
_atom_type_oxidation_number
K1+ 1
B3+ 3
Be2+ 2
O2- -2
F1- -1
loop_
_atom_site_label
_atom_site_type_symbol
_atom_site_symmetry_multiplicity
_atom_site_Wyckoff_symbol
_atom_site_fract_x
_atom_site_fract_y
_atom_site_fract_z
_atom_site_B_iso_or_equiv
_atom_site_occupancy
K1 K1+ 2 a 0 0 0 2. 1.
B1 B3+ 2 b 0 0.519(9) 0.5 1.7 1.
Be1 Be2+ 4 c 0.198(2) 0.025(7) 0.590(3) 1.6 1.
O1 O2- 2 b 0 0.190(4) 0.5 1.8 1.
O2 O2- 4 c 0.344(1) 0.157(3) 0.498(2) 2. 1.
F1 F1- 4 c 0.222(1) 0.496(4) 0.165(1) 2.6 1.
#End of TTdata_16178-ICSD