
#(C) 2020 by FIZ Karlsruhe - Leibniz Institute for Information Infrastructure.  All rights reserved.
data_163176-ICSD
_database_code_ICSD 163176
_audit_creation_date 2009-08-01
_chemical_name_common 'Dilithium tetraborate'
_chemical_formula_structural 'Li2 (B4 O7)'
_chemical_formula_sum 'B4 Li2 O7'
_chemical_name_structure_type Li2B4O7
_exptl_crystal_density_diffrn 2.43
_diffrn_ambient_temperature 290.
_citation_title

;
The crystal structure of Li2 B4 O7 compound in the temperature range 10 - 290
K
;
loop_
_citation_id
_citation_journal_full
_citation_year
_citation_journal_volume
_citation_page_first
_citation_page_last
_citation_journal_id_ASTM
primary 'Journal of Alloys and Compounds' 2009 475 869 873 JALCEU
loop_
_citation_author_citation_id
_citation_author_name
primary 'Adamiv, V.T.'
primary 'Burak, Ya.V.'
primary 'Teslyuk, I.M.'
_cell_length_a 9.4774(2)
_cell_length_b 9.4774(2)
_cell_length_c 10.2925(3)
_cell_angle_alpha 90.
_cell_angle_beta 90.
_cell_angle_gamma 90.
_cell_volume 924.48
_cell_formula_units_Z 8
_space_group_name_H-M_alt 'I 41 c d'
_space_group_IT_number 110
loop_
_space_group_symop_id
_space_group_symop_operation_xyz
1 '-y, -x+1/2, z+3/4'
2 '-y, x+1/2, z+1/4'
3 'x, -y, z+1/2'
4 '-x, -y, z'
5 'y, x+1/2, z+3/4'
6 'y, -x+1/2, z+1/4'
7 '-x, y, z+1/2'
8 'x, y, z'
9 '-y+1/2, -x, z+1/4'
10 '-y+1/2, x, z+3/4'
11 'x+1/2, -y+1/2, z'
12 '-x+1/2, -y+1/2, z+1/2'
13 'y+1/2, x, z+1/4'
14 'y+1/2, -x, z+3/4'
15 '-x+1/2, y+1/2, z'
16 'x+1/2, y+1/2, z+1/2'
loop_
_atom_type_symbol
_atom_type_oxidation_number
Li1+ 1
B3+ 3
O2- -2
loop_
_atom_site_label
_atom_site_type_symbol
_atom_site_symmetry_multiplicity
_atom_site_Wyckoff_symbol
_atom_site_fract_x
_atom_site_fract_y
_atom_site_fract_z
_atom_site_B_iso_or_equiv
_atom_site_occupancy
Li1 Li1+ 16 b 0.1444(6) 0.1634(6) 0.8549(6) 2.74(10) 1.
B1 B3+ 16 b 0.1680(4) 0.0847(3) 0.2002(4) 1.32(5) 1.
B2 B3+ 16 b 0.9433(3) 0.1120(3) 0.0841(4) 0.97(5) 1.
O1 O2- 16 b 0.2817(2) 0.1366(1) 0.2691(3) 0.41(2) 1.
O2 O2- 16 b 0.0634(2) 0.1778(2) 0.1595(2) 0.71(3) 1.
O3 O2- 16 b 0.1588(2) -0.0583(2) 0.1832(2) 0.55(3) 1.
O4 O2- 8 a 0 0 0 0.63(4) 1.
#End of TTdata_163176-ICSD