
#(C) 2020 by FIZ Karlsruhe - Leibniz Institute for Information Infrastructure.  All rights reserved.
data_164632-ICSD
_database_code_ICSD 164632
_audit_creation_date 2010-02-01
_audit_update_record 2014-08-01
_chemical_name_common 'Tribarium tetrastrontium tris(borate) pentafluoride'
_chemical_formula_structural 'Ba3 Sr4 (B O3)3 F5'
_chemical_formula_sum 'B3 Ba3 F5 O9 Sr4'
_chemical_name_structure_type Ba3Sr4(BO3)3F5
_exptl_crystal_density_diffrn 4.81
_diffrn_ambient_temperature 293.
_citation_title

;
Crystal growth, structure and properties of a non-centrosymmetric fluoride
borate, Ba3 Sr4 (B O3)3 F5
;
loop_
_citation_id
_citation_journal_full
_citation_year
_citation_journal_volume
_citation_page_first
_citation_page_last
_citation_journal_id_ASTM
primary 'Crystal Growth & Design' 2009 9 3137 3141 CGDEFU
loop_
_citation_author_citation_id
_citation_author_name
primary 'Zhan Guochung'
primary 'Liu Zuoliang'
primary 'Zhang Jianxiu'
primary 'Fan Feidi'
primary 'Liu Youchen'
primary 'Fu Pei Zhen'
_cell_length_a 10.8953(16)
_cell_length_b 10.8953(16)
_cell_length_c 6.9381(15)
_cell_angle_alpha 90.
_cell_angle_beta 90.
_cell_angle_gamma 120.
_cell_volume 713.26
_cell_formula_units_Z 2
_space_group_name_H-M_alt 'P 63 m c'
_space_group_IT_number 186
loop_
_space_group_symop_id
_space_group_symop_operation_xyz
1 '-x, -x+y, z+1/2'
2 'x-y, -y, z+1/2'
3 'y, x, z+1/2'
4 'x-y, x, z+1/2'
5 'y, -x+y, z+1/2'
6 '-x, -y, z+1/2'
7 'x, x-y, z'
8 '-x+y, y, z'
9 '-y, -x, z'
10 '-x+y, -x, z'
11 '-y, x-y, z'
12 'x, y, z'
loop_
_atom_type_symbol
_atom_type_oxidation_number
Ba2+ 2
Sr2+ 2
F1- -1
O2- -2
F1- -1
B3+ 3
loop_
_atom_site_label
_atom_site_type_symbol
_atom_site_symmetry_multiplicity
_atom_site_Wyckoff_symbol
_atom_site_fract_x
_atom_site_fract_y
_atom_site_fract_z
_atom_site_U_iso_or_equiv
_atom_site_occupancy
Ba1 Ba2+ 6 c 0.864386(14) 0.72877(3) 0.50010(4) 0.02501(6) 1
Sr1 Sr2+ 2 b 0.3333 0.6667 0.73990(10) 0.01518(13) 1
Sr2 Sr2+ 6 c 0.47224(3) 0.52776(3) 0.34686(8) 0.03039(12) 1
F1 F1- 2 a 0 0 0.6722(9) 0.0406(14) 1
F2 F1- 2 b 0.3333 0.6667 0.3374(10) 0.0445(17) 1
O1 O2- 6 c 0.7008(5) 0.8504(2) 0.3827(7) 0.0389(11) 1
O2 O2- 12 d 0.5939(2) 0.9050(2) 0.6512(4) 0.0328(7) 1
F3 F1- 6 c 0.4149(4) 0.5851(4) -0.0034(17) 0.126(3) 1
B1 B3+ 6 c 0.6263(6) 0.8132(3) 0.5627(8) 0.0243(12) 1
loop_
_atom_site_aniso_label
_atom_site_aniso_type_symbol
_atom_site_aniso_U_11
_atom_site_aniso_U_22
_atom_site_aniso_U_33
_atom_site_aniso_U_12
_atom_site_aniso_U_13
_atom_site_aniso_U_23
Ba1 Ba2+ 0.02304(8) 0.02863(12) 0.02522(11) 0.01431(6) -0.00117(7) -0.00235(14)
Sr1 Sr2+ 0.01426(15) 0.01426(15) 0.0170(3) 0.00713(8) 0. 0.
Sr2 Sr2+ 0.02673(10) 0.02673(10) 0.0356(2) 0.01176(11) 0.00693(9) -0.00693(9)
F1 F1- 0.0438(18) 0.0438(18) 0.034(2) 0.0219(9) 0. 0.
F2 F1- 0.051(2) 0.051(2) 0.032(3) 0.0254(11) 0. 0.
O1 O2- 0.0315(19) 0.0473(18) 0.033(2) 0.0157(9) 0.0093(17) 0.0046(8)
O2 O2- 0.0271(8) 0.0362(9) 0.0436(13) 0.0222(6) -0.0027(9) -0.0063(10)
F3 F1- 0.1274(18) 0.1274(18) 0.150(6) 0.084(2) -0.018(3) 0.018(3)
B1 B3+ 0.023(2) 0.0164(15) 0.036(2) 0.0113(11) -0.0164(19) -0.0082(10)
#End of TTdata_164632-ICSD