
#(C) 2020 by FIZ Karlsruhe - Leibniz Institute for Information Infrastructure.  All rights reserved.
data_164855-ICSD
_database_code_ICSD 164855
_audit_creation_date 2010-02-01
_chemical_name_common 'Cesium diberyllium borate difluoride'
_chemical_formula_structural 'Cs Be2 (B O3) F2'
_chemical_formula_sum 'B1 Be2 Cs1 F2 O3'
_chemical_name_structure_type RbBe2BO3F2
_exptl_crystal_density_diffrn 3.39
_citation_title

;
The X-ray diffraction study of boratofluoroberyllates of the composition M Be2
(B O3) F2, where M is sodium, potassium, rubidium, or cesium
;
loop_
_citation_id
_citation_journal_full
_citation_year
_citation_journal_volume
_citation_page_first
_citation_page_last
_citation_journal_id_ASTM
primary 'Zhurnal Strukturnoi Khimii' 1975 16 1050 1053 ZSTKAI
loop_
_citation_author_citation_id
_citation_author_name
primary 'Baidina, I.A.'
primary 'Bakakin, V.V.'
primary 'Batsanova, L.R.'
primary 'Pal'chik, N.A. (Palchik, N.A.)'
primary 'Podberezskaya, N.V.'
primary 'Solov'eva, L.P. (Soloveva, L.P.)'
_cell_length_a 7.695(5)
_cell_length_b 4.446(5)
_cell_length_c 7.544(5)
_cell_angle_alpha 90.
_cell_angle_beta 109.7
_cell_angle_gamma 90.
_cell_volume 242.99
_cell_formula_units_Z 2
_space_group_name_H-M_alt 'C 1 2 1'
_space_group_IT_number 5
loop_
_space_group_symop_id
_space_group_symop_operation_xyz
1 '-x, y, -z'
2 'x, y, z'
3 '-x+1/2, y+1/2, -z'
4 'x+1/2, y+1/2, z'
loop_
_atom_type_symbol
_atom_type_oxidation_number
Cs1+ 1
B3+ 3
Be2+ 2
O2- -2
F1- -1
loop_
_atom_site_label
_atom_site_type_symbol
_atom_site_symmetry_multiplicity
_atom_site_Wyckoff_symbol
_atom_site_fract_x
_atom_site_fract_y
_atom_site_fract_z
_atom_site_B_iso_or_equiv
_atom_site_occupancy
Cs1 Cs1+ 2 a 0 0 0 2. 1.
B1 B3+ 2 b 0 0.484 0.5 2.2 1.
Be1 Be2+ 4 c 0.192 -0.011 0.582 0.9 1.
O1 O2- 2 b 0 0.197 0.5 1.4 1.
O2 O2- 4 c 0.346 0.161 0.501 1.8 1.
F1 F1- 4 c 0.233 0.473 0.204 2.3 1.
#End of TTdata_164855-ICSD