
#(C) 2020 by FIZ Karlsruhe - Leibniz Institute for Information Infrastructure.  All rights reserved.
data_164890-ICSD
_database_code_ICSD 164890
_audit_creation_date 2010-02-01
_chemical_name_common 'Tripotassium dilithium pentakis(niobate)'
_chemical_formula_structural 'K3 Li2 (Nb O3)5'
_chemical_formula_sum 'K3 Li2 Nb5 O15'
_exptl_crystal_density_diffrn 4.38
_diffrn_ambient_temperature 293.
_citation_title

;
Ternary system Li2 O - K2 O - Nb2 O5: re-examination of the 30 mol% K2 O
isopleth and growth of fully stoichiometric potassium lithium niobate single
crystals by the micro-pulling down technique
;
loop_
_citation_id
_citation_journal_full
_citation_year
_citation_journal_volume
_citation_page_first
_citation_page_last
_citation_journal_id_ASTM
primary 'Journal of Crystal Growth' 2009 311 4343 4349 JCRGAE
loop_
_citation_author_citation_id
_citation_author_name
primary 'Ferriol, M.'
primary 'Cochez, M.'
primary 'Aillerie, M.'
_cell_length_a 12.5720(4)
_cell_length_b 12.5720(4)
_cell_length_c 4.0102(3)
_cell_angle_alpha 90.
_cell_angle_beta 90.
_cell_angle_gamma 90.
_cell_volume 633.83
_cell_formula_units_Z 2
_space_group_name_H-M_alt 'P 4/m b m'
_space_group_IT_number 127
loop_
_space_group_symop_id
_space_group_symop_operation_xyz
1 'y+1/2, x+1/2, -z'
2 '-y+1/2, -x+1/2, -z'
3 '-y, x, -z'
4 'y, -x, -z'
5 'x+1/2, -y+1/2, -z'
6 '-x+1/2, y+1/2, -z'
7 'x, y, -z'
8 '-x, -y, -z'
9 '-y+1/2, -x+1/2, z'
10 'y+1/2, x+1/2, z'
11 'y, -x, z'
12 '-y, x, z'
13 '-x+1/2, y+1/2, z'
14 'x+1/2, -y+1/2, z'
15 '-x, -y, z'
16 'x, y, z'
loop_
_atom_type_symbol
_atom_type_oxidation_number
Nb5+ 5
K1+ 1
Li1+ 1
O2- -2
loop_
_atom_site_label
_atom_site_type_symbol
_atom_site_symmetry_multiplicity
_atom_site_Wyckoff_symbol
_atom_site_fract_x
_atom_site_fract_y
_atom_site_fract_z
_atom_site_U_iso_or_equiv
_atom_site_occupancy
Nb1 Nb5+ 2 d 0 0.5 0 0.011(1) 1.
Nb2 Nb5+ 8 i 0.2079(1) 0.0746(1) 0 0.010(1) 1.
K1 K1+ 2 b 0 0 0.5 0.022(1) 1.
K2 K1+ 4 h 0.1725(1) 0.3275(1) 0.5 0.026(1) 1.
Li1 Li1+ 4 h 0.3784(1) 0.1216(7) 0.5 0.006(2) 1.
O1 O2- 8 i -0.0014(4) 0.3455(3) 0 0.040(2) 1.
O2 O2- 2 c 0 0.5 0.5 0.075(7) 1.
O3 O2- 4 g 0.2901(3) 0.2099(3) 0 0.028(2) 1.
O4 O2- 8 i 0.0690(3) 0.1410(3) 0 0.023(1) 1.
O5 O2- 8 j 0.2137(5) 0.0781(5) 0.5 0.038(2) 1.
#End of TTdata_164890-ICSD