
#(C) 2020 by FIZ Karlsruhe - Leibniz Institute for Information Infrastructure.  All rights reserved.
data_166629-ICSD
_database_code_ICSD 166629
_audit_creation_date 2010-08-01
_audit_update_record 2013-08-01
_chemical_name_common 'Tetrasodium discandium tetragermanate'
_chemical_formula_structural 'Na4 Sc2 (Ge4 O13)'
_chemical_formula_sum 'Ge4 Na4 O13 Sc2'
_chemical_name_structure_type Na4Sc2Ge4O13
_exptl_crystal_density_diffrn 3.95
_citation_title 'Crystal structure of the Na, Sc-germanate Na4 Sc2 Ge4 O13'
loop_
_citation_id
_citation_journal_full
_citation_year
_citation_journal_volume
_citation_page_first
_citation_page_last
_citation_journal_id_ASTM
primary 'Doklady Akademii Nauk SSSR' 1973 211 591 594 DANKAS
loop_
_citation_author_citation_id
_citation_author_name
primary 'Gorbunov, Yu.A.'
primary 'Maximov, B.A.'
primary 'Belov, N.V.'
_cell_length_a 14.3
_cell_length_b 5.46
_cell_length_c 14.65
_cell_angle_alpha 90.
_cell_angle_beta 90.
_cell_angle_gamma 90.
_cell_volume 1143.84
_cell_formula_units_Z 4
_space_group_name_H-M_alt 'P n a 21'
_space_group_IT_number 33
loop_
_space_group_symop_id
_space_group_symop_operation_xyz
1 'x+1/2, -y+1/2, z'
2 '-x+1/2, y+1/2, z+1/2'
3 '-x, -y, z+1/2'
4 'x, y, z'
loop_
_atom_type_symbol
_atom_type_oxidation_number
Ge4+ 4
Sc3+ 3
Na1+ 1
O2- -2
loop_
_atom_site_label
_atom_site_type_symbol
_atom_site_symmetry_multiplicity
_atom_site_Wyckoff_symbol
_atom_site_fract_x
_atom_site_fract_y
_atom_site_fract_z
_atom_site_B_iso_or_equiv
_atom_site_occupancy
Ge1 Ge4+ 4 a 0.02 0.154 0 -0.1 1.
Ge2 Ge4+ 4 a 0.309 0.332 0.227 -0.28 1.
Ge3 Ge4+ 4 a 0.44 0.198 0.814 -0.21 1.
Ge4 Ge4+ 4 a 0.229 0.174 0.041 -0.39 1.
Sc1 Sc3+ 4 a 0.17 0.197 0.421 -0.13 1.
Sc2 Sc3+ 4 a 0.077 0.351 0.624 -0.34 1.
Na1 Na1+ 4 a 0.331 0.177 0.617 0.97 1.
Na2 Na1+ 4 a 0.42 0.158 0.421 0.65 1.
Na3 Na1+ 4 a 0.053 0.191 0.212 -0.02 1.
Na4 Na1+ 4 a 0.194 0.294 0.832 0.76 1.
O1 O2- 4 a 0.122 -0.004 0.025 -0.22 1.
O2 O2- 4 a 0.322 -0.023 0.027 -0.1 1.
O3 O2- 4 a 0.211 0.23 0.157 0.95 1.
O4 O2- 4 a 0.223 0.473 0.984 -0.43 1.
O5 O2- 4 a 0.396 0.121 0.213 -0.65 1.
O6 O2- 4 a 0.28 0.315 0.345 -0.48 1.
O7 O2- 4 a 0.176 0.118 0.686 1.38 1.
O8 O2- 4 a 0.034 0.223 0.88 -1.81 1.
O9 O2- 4 a 0.058 0.062 0.521 0.02 1.
O10 O2- 4 a 0.018 0.429 0.056 0.89 1.
O11 O2- 4 a 0.355 0.401 0.856 -0.72 1.
O12 O2- 4 a 0.075 0.378 0.341 0.5 1.
O13 O2- 4 a 0.465 0.252 0.709 -0.87 1.
#End of TTdata_166629-ICSD