
#(C) 2020 by FIZ Karlsruhe - Leibniz Institute for Information Infrastructure.  All rights reserved.
data_167307-ICSD
_database_code_ICSD 167307
_audit_creation_date 2010-08-01
_chemical_name_common 'Pentaaluminium hexaoxide borate'
_chemical_formula_structural 'Al5 O6 (B O3)'
_chemical_formula_sum 'Al5 B1 O9'
_chemical_name_structure_type Al5(BO3)O6
_exptl_crystal_density_diffrn 2.93
_diffrn_ambient_temperature 298.
_citation_title

;
Stability at high pressure, elastic behavior and pressure-induced structural
evolution of "Al5 B O9", a mullite-type ceramic material
;
loop_
_citation_id
_citation_journal_full
_citation_year
_citation_journal_volume
_citation_page_first
_citation_page_last
_citation_journal_id_ASTM
primary 'Physics and Chemistry of Minerals' 2010 37 227 236 PCMIDU
loop_
_citation_author_citation_id
_citation_author_name
primary 'Gatta, G.D.'
primary 'Rotiroti, N.'
primary 'Fisch, M.'
primary 'Armbruster, T.'
_cell_length_a 5.678(2)
_cell_length_b 15.015(4)
_cell_length_c 7.700(3)
_cell_angle_alpha 90.
_cell_angle_beta 90.
_cell_angle_gamma 90.
_cell_volume 656.46
_cell_formula_units_Z 4
_space_group_name_H-M_alt 'C m c 21'
_space_group_IT_number 36
loop_
_space_group_symop_id
_space_group_symop_operation_xyz
1 'x, -y, z+1/2'
2 '-x, -y, z+1/2'
3 '-x, y, z'
4 'x, y, z'
5 'x+1/2, -y+1/2, z+1/2'
6 '-x+1/2, -y+1/2, z+1/2'
7 '-x+1/2, y+1/2, z'
8 'x+1/2, y+1/2, z'
loop_
_atom_type_symbol
_atom_type_oxidation_number
Al3+ 3
B3+ 3
O2- -2
loop_
_atom_site_label
_atom_site_type_symbol
_atom_site_symmetry_multiplicity
_atom_site_Wyckoff_symbol
_atom_site_fract_x
_atom_site_fract_y
_atom_site_fract_z
_atom_site_U_iso_or_equiv
_atom_site_occupancy
Al1 Al3+ 8 b 0.2519(2) 0.11653(6) 0.3336(2) 0.0069(2) 1.
Al2 Al3+ 4 a 0 0.25515(9) 0.5199(2) 0.0096(4) 1.
Al3 Al3+ 4 a 0 0.44410(9) 0.5156(2) 0.0075(3) 1.
Al4 Al3+ 4 a 0 0.29682(9) 0.1677(2) 0.0084(4) 1.
B1 B3+ 4 a 0 0.0164(4) 0.0542(7) 0.0112(14) 1.
O1 O2- 4 a 0 0.3285(2) 0.7049(5) 0.0090(8) 1.
O2 O2- 8 b 0.2558(4) 0.19016(15) 0.5345(3) 0.0073(6) 1.
O3 O2- 4 a 0 0.4541(2) 0.9045(5) 0.0086(8) 1.
O4 O2- 4 a 0 0.0465(2) 0.4250(5) 0.0096(8) 1.
O5 O2- 4 a 0 0.3522(2) 0.3716(5) 0.0090(8) 1.
O6 O2- 4 a 0 0.1911(2) 0.2671(5) 0.0076(8) 1.
O7 O2- 8 b 0.2110(5) 0.04838(16) 0.1183(3) 0.0097(6) 1.
#End of TTdata_167307-ICSD