
#(C) 2020 by FIZ Karlsruhe - Leibniz Institute for Information Infrastructure.  All rights reserved.
data_168497-ICSD
_database_code_ICSD 168497
_audit_creation_date 2011-02-01
_chemical_name_common
'Dirubidium closo-dodecachlorododecaborate tetrakis(sulfur dioxide)'
_chemical_formula_structural '(Rb2 (B12 Cl12)) (S O2)4'
_chemical_formula_sum 'B12 Cl12 O8 Rb2 S4'
_exptl_crystal_density_diffrn 2.12
_diffrn_ambient_temperature 163.
_citation_title

;
Alkali metal-sulfur dioxide complexes stabilized by halogenated
closo-dodecaborate anions
;
loop_
_citation_id
_citation_journal_full
_citation_year
_citation_journal_volume
_citation_page_first
_citation_page_last
_citation_journal_id_ASTM
primary 'Dalton Transactions' 2010 39 8671 8678 DTARAF
loop_
_citation_author_citation_id
_citation_author_name
primary 'Derendorf, J.'
primary 'Kessler, M.'
primary 'Knapp, C.'
primary 'Ruehle, M.'
primary 'Schulz, C.'
_cell_length_a 21.501(4)
_cell_length_b 9.2983(19)
_cell_length_c 15.361(3)
_cell_angle_alpha 90.
_cell_angle_beta 90.
_cell_angle_gamma 90.
_cell_volume 3071.01
_cell_formula_units_Z 4
_space_group_name_H-M_alt 'P n a 21'
_space_group_IT_number 33
loop_
_space_group_symop_id
_space_group_symop_operation_xyz
1 'x+1/2, -y+1/2, z'
2 '-x+1/2, y+1/2, z+1/2'
3 '-x, -y, z+1/2'
4 'x, y, z'
loop_
_atom_type_symbol
_atom_type_oxidation_number
Rb1+ 1
B0+ 0.833
Cl1- -1
B0+ 0.833
Cl1- -1
B0+ 0.833
Cl1- -1
B0+ 0.833
Cl1- -1
B0+ 0.833
Cl1- -1
B0+ 0.833
Cl1- -1
B0+ 0.833
Cl1- -1
B0+ 0.833
Cl1- -1
B0+ 0.833
Cl1- -1
B0+ 0.833
Cl1- -1
B0+ 0.833
Cl1- -1
B0+ 0.833
Cl1- -1
O2- -2
S4+ 4
O2- -2
S4+ 4
O2- -2
S4+ 4
O2- -2
S4+ 4
O2- -2
loop_
_atom_site_label
_atom_site_type_symbol
_atom_site_symmetry_multiplicity
_atom_site_Wyckoff_symbol
_atom_site_fract_x
_atom_site_fract_y
_atom_site_fract_z
_atom_site_U_iso_or_equiv
_atom_site_occupancy
Rb1 Rb1+ 4 a 0.43237(3) 0.27911(6) 0.66174(4) 0.04200(17) 1
Rb2 Rb1+ 4 a 0.68782(3) 0.23219(6) 0.41686(4) 0.03803(16) 1
B1 B0+ 4 a 0.7948(3) 0.5561(7) 0.5735(4) 0.0246(13) 1
Cl1 Cl1- 4 a 0.77985(7) 0.37366(14) 0.60424(9) 0.0315(3) 1
B2 B0+ 4 a 0.8448(3) 0.6677(7) 0.6380(4) 0.0260(14) 1
Cl2 Cl1- 4 a 0.88234(6) 0.59892(15) 0.73335(9) 0.0314(3) 1
B3 B0+ 4 a 0.8689(3) 0.6117(7) 0.5333(4) 0.0282(15) 1
Cl3 Cl1- 4 a 0.93103(6) 0.48539(15) 0.51588(10) 0.0333(3) 1
B4 B0+ 4 a 0.8021(3) 0.6115(7) 0.4624(4) 0.0286(15) 1
Cl4 Cl1- 4 a 0.79626(7) 0.48561(16) 0.37471(10) 0.0357(3) 1
B5 B0+ 4 a 0.7375(3) 0.6678(7) 0.5253(4) 0.0283(14) 1
Cl5 Cl1- 4 a 0.66040(7) 0.60393(16) 0.50321(10) 0.0344(3) 1
B6 B0+ 4 a 0.7635(3) 0.7039(6) 0.6350(4) 0.0245(14) 1
Cl6 Cl1- 4 a 0.71443(6) 0.67823(14) 0.72730(10) 0.0311(3) 1
B7 B0+ 4 a 0.8831(3) 0.7908(6) 0.5665(4) 0.0248(13) 1
Cl7 Cl1- 4 a 0.96043(6) 0.85449(15) 0.58869(10) 0.0322(3) 1
B8 B0+ 4 a 0.8561(3) 0.7558(6) 0.4584(4) 0.0249(13) 1
Cl8 Cl1- 4 a 0.90734(7) 0.78133(16) 0.36764(9) 0.0351(3) 1
B9 B0+ 4 a 0.7755(3) 0.7923(7) 0.4545(4) 0.0271(14) 1
Cl9 Cl1- 4 a 0.73778(7) 0.85890(16) 0.35832(10) 0.0363(3) 1
B10 B0+ 4 a 0.7511(3) 0.8482(7) 0.5604(4) 0.0266(14) 1
Cl10 Cl1- 4 a 0.69013(6) 0.97568(15) 0.57700(10) 0.0345(3) 1
B11 B0+ 4 a 0.8187(3) 0.8482(7) 0.6297(5) 0.0284(14) 1
Cl11 Cl1- 4 a 0.82575(7) 0.97274(14) 0.71805(10) 0.0337(3) 1
B12 B0+ 4 a 0.8246(3) 0.9028(7) 0.5178(4) 0.0273(14) 1
Cl12 Cl1- 4 a 0.84045(7) 1.08556(14) 0.48700(10) 0.0325(3) 1
O1 O2- 4 a 0.9201(2) 0.5166(5) 0.9250(3) 0.0516(12) 1
S1 S4+ 4 a 0.93835(8) 0.3698(2) 0.92642(12) 0.0458(4) 1
O2 O2- 4 a 0.9364(2) 0.2913(6) 0.8472(3) 0.0577(14) 1
O3 O2- 4 a 0.6249(2) 0.2741(5) 0.5928(3) 0.0533(13) 1
S2 S4+ 4 a 0.61810(7) 0.37402(18) 0.66209(12) 0.0426(4) 1
O4 O2- 4 a 0.5572(2) 0.4237(5) 0.6821(3) 0.0487(12) 1
O5 O2- 4 a 0.5357(2) 1.0553(5) 0.6998(4) 0.0644(15) 1
S3 S4+ 4 a 0.55838(10) 0.9175(2) 0.71808(17) 0.0712(6) 1
O6 O2- 4 a 0.5421(3) 0.8498(7) 0.7957(4) 0.092(2) 1
O7 O2- 4 a 0.4963(3) 0.3191(6) 0.4871(4) 0.0650(14) 1
S4 S4+ 4 a 0.50292(9) 0.39042(19) 0.40538(14) 0.0537(5) 1
O8 O2- 4 a 0.5634(3) 0.4015(8) 0.3728(5) 0.100(2) 1
loop_
_atom_site_aniso_label
_atom_site_aniso_type_symbol
_atom_site_aniso_U_11
_atom_site_aniso_U_22
_atom_site_aniso_U_33
_atom_site_aniso_U_12
_atom_site_aniso_U_13
_atom_site_aniso_U_23
Rb1 Rb1+ 0.0414(3) 0.0376(3) 0.0470(4) 0.0049(3) -0.0019(3) -0.0017(3)
Rb2 Rb1+ 0.0409(3) 0.0385(3) 0.0346(3) -0.0067(3) -0.0012(3) 0.0013(3)
B1 B0+ 0.021(3) 0.028(3) 0.025(3) 0.004(2) 0.002(3) 0.002(3)
Cl1 Cl1- 0.0338(8) 0.0228(7) 0.0379(8) -0.0004(6) 0.0023(6) 0.0034(6)
B2 B0+ 0.026(3) 0.027(3) 0.026(3) 0.005(3) 0.003(3) -0.002(3)
Cl2 Cl1- 0.0317(7) 0.0376(7) 0.0249(7) 0.0039(6) -0.0040(6) 0.0045(6)
B3 B0+ 0.026(3) 0.029(3) 0.029(4) -0.001(3) 0.002(3) 0.006(3)
Cl3 Cl1- 0.0300(8) 0.0306(7) 0.0393(8) 0.0083(6) 0.0055(6) 0.0008(6)
B4 B0+ 0.024(3) 0.034(4) 0.027(3) -0.002(3) -0.001(3) 0.000(3)
Cl4 Cl1- 0.0434(8) 0.0348(8) 0.0289(8) -0.0064(6) 0.0003(7) -0.0075(6)
B5 B0+ 0.028(3) 0.028(3) 0.029(4) 0.005(3) 0.002(3) 0.001(3)
Cl5 Cl1- 0.0272(7) 0.0355(7) 0.0405(9) -0.0052(6) -0.0060(7) 0.0057(6)
B6 B0+ 0.024(3) 0.028(3) 0.022(3) -0.001(3) -0.004(3) 0.002(2)
Cl6 Cl1- 0.0318(8) 0.0338(7) 0.0276(7) 0.0004(6) 0.0055(6) 0.0039(6)
B7 B0+ 0.025(3) 0.028(3) 0.021(3) -0.003(3) -0.006(3) 0.001(3)
Cl7 Cl1- 0.0256(7) 0.0339(7) 0.0372(8) -0.0044(6) -0.0027(6) -0.0012(6)
B8 B0+ 0.025(3) 0.023(3) 0.026(3) 0.001(3) -0.002(3) -0.002(3)
Cl8 Cl1- 0.0358(8) 0.0427(9) 0.0268(8) -0.0032(6) 0.0074(6) 0.0021(6)
B9 B0+ 0.023(3) 0.031(3) 0.027(3) -0.001(3) 0.000(3) -0.001(3)
Cl9 Cl1- 0.0380(8) 0.0420(8) 0.0290(8) -0.0009(6) -0.0087(7) 0.0092(7)
B10 B0+ 0.030(3) 0.026(3) 0.024(3) 0.001(3) 0.002(3) 0.002(3)
Cl10 Cl1- 0.0307(7) 0.0317(7) 0.0410(9) 0.0097(6) 0.0028(7) 0.0057(6)
B11 B0+ 0.028(3) 0.024(3) 0.032(4) -0.002(3) -0.005(3) 0.005(3)
Cl11 Cl1- 0.0388(8) 0.0320(7) 0.0304(8) -0.0037(6) 0.0043(7) -0.0074(6)
B12 B0+ 0.028(4) 0.025(3) 0.029(4) 0.002(3) -0.001(3) 0.006(3)
Cl12 Cl1- 0.0357(8) 0.0243(7) 0.0376(8) -0.0018(6) 0.0018(7) 0.0042(6)
O1 O2- 0.045(3) 0.062(3) 0.048(3) 0.009(2) -0.007(2) 0.010(3)
S1 S4+ 0.0349(9) 0.0570(11) 0.0455(10) -0.0030(7) -0.0067(8) 0.0131(9)
O2 O2- 0.043(3) 0.074(4) 0.056(3) -0.001(2) 0.011(2) -0.005(3)
O3 O2- 0.054(3) 0.039(3) 0.067(4) 0.003(2) 0.007(3) -0.005(2)
S2 S4+ 0.0347(8) 0.0500(9) 0.0433(10) -0.0014(7) 0.0005(8) 0.0092(8)
O4 O2- 0.045(3) 0.055(3) 0.046(3) 0.015(2) 0.000(2) 0.010(2)
O5 O2- 0.054(3) 0.049(3) 0.090(4) -0.002(2) -0.013(3) 0.014(3)
S3 S4+ 0.0610(13) 0.0667(13) 0.0860(17) 0.0091(10) 0.0272(13) 0.0204(12)
O6 O2- 0.080(4) 0.109(5) 0.085(5) -0.033(4) -0.021(4) 0.045(4)
O7 O2- 0.070(4) 0.064(3) 0.061(4) -0.003(3) 0.002(3) -0.006(3)
S4 S4+ 0.0459(10) 0.0485(10) 0.0667(13) -0.0008(8) 0.0066(9) -0.0123(9)
O8 O2- 0.068(4) 0.127(6) 0.106(5) -0.044(4) 0.039(4) -0.042(5)
#End of TTdata_168497-ICSD