
#(C) 2020 by FIZ Karlsruhe - Leibniz Institute for Information Infrastructure.  All rights reserved.
data_1699-ICSD
_database_code_ICSD 1699
_audit_creation_date 1986-11-04
_audit_update_record 2012-08-01
_chemical_name_common 'Indium tetrathiophosphate(V)'
_chemical_formula_structural 'In (P S4)'
_chemical_formula_sum 'In1 P1 S4'
_chemical_name_structure_type InPS4
_exptl_crystal_density_diffrn 3.18
_citation_title 'The structural chemistry of indium phosphorous chalkogenides'
loop_
_citation_id
_citation_journal_full
_citation_year
_citation_journal_volume
_citation_page_first
_citation_page_last
_citation_journal_id_ASTM
primary

;
Acta Crystallographica, Section B: Structural Crystallography and Crystal
Chemistry
; 1978 34 1097 1105 ACBCAR
loop_
_citation_author_citation_id
_citation_author_name
primary 'Diehl, R.'
primary 'Carpentier, C.D.'
_cell_length_a 5.623(1)
_cell_length_b 5.623(1)
_cell_length_c 9.058(2)
_cell_angle_alpha 90.
_cell_angle_beta 90.
_cell_angle_gamma 90.
_cell_volume 286.4
_cell_formula_units_Z 2
_space_group_name_H-M_alt 'I -4'
_space_group_IT_number 82
loop_
_space_group_symop_id
_space_group_symop_operation_xyz
1 '-y, x, -z'
2 'y, -x, -z'
3 '-x, -y, z'
4 'x, y, z'
5 '-y+1/2, x+1/2, -z+1/2'
6 'y+1/2, -x+1/2, -z+1/2'
7 '-x+1/2, -y+1/2, z+1/2'
8 'x+1/2, y+1/2, z+1/2'
loop_
_atom_type_symbol
_atom_type_oxidation_number
In3+ 3
P5+ 5
S2- -2
loop_
_atom_site_label
_atom_site_type_symbol
_atom_site_symmetry_multiplicity
_atom_site_Wyckoff_symbol
_atom_site_fract_x
_atom_site_fract_y
_atom_site_fract_z
_atom_site_B_iso_or_equiv
_atom_site_occupancy
In1 In3+ 2 a 0 0 0 . 1.
P1 P5+ 2 d 0 0.5 0.75 . 1.
S1 S2- 8 g 0.3057(3) 0.2389(3) 0.1302(2) . 1.
loop_
_atom_site_aniso_label
_atom_site_aniso_type_symbol
_atom_site_aniso_U_11
_atom_site_aniso_U_22
_atom_site_aniso_U_33
_atom_site_aniso_U_12
_atom_site_aniso_U_13
_atom_site_aniso_U_23
In1 In3+ 0.0149(3) 0.0149(3) 0.0177(4) 0 0 0
P1 P5+ 0.0133(7) 0.0133(7) 0.0111(2) 0 0 0
S1 S2- 0.0180(7) 0.0120(6) 0.0190(7) -.0010(5) -.0067(6) 0.0029(5)
#End of TTdata_1699-ICSD