
#(C) 2020 by FIZ Karlsruhe - Leibniz Institute for Information Infrastructure.  All rights reserved.
data_170334-ICSD
_database_code_ICSD 170334
_audit_creation_date 2006-04-01
_chemical_name_common 'Rubidium hexaselenophosphate'
_chemical_formula_structural 'Rb P Se6'
_chemical_formula_sum 'P1 Rb1 Se6'
_chemical_name_structure_type KPSe6
_exptl_crystal_density_diffrn 4.24
_citation_title

;
A P Se6 (A= K, Pb, and Cs): polymeric selenophosphates with reversible
phase-change properties
;
loop_
_citation_id
_citation_journal_full
_citation_year
_citation_journal_volume
_citation_page_first
_citation_page_last
_citation_journal_id_ASTM
primary 'Inorganic Chemistry' 2004 43 2762 2764 INOCAJ
loop_
_citation_author_citation_id
_citation_author_name
primary 'Chung, I.'
primary 'Do, J.'
primary 'Canlas, C.G.'
primary 'Weliky, D.P.'
primary 'Kanatzidis, M.G.'
_cell_length_a 11.7764(17)
_cell_length_b 6.8580(10)
_cell_length_c 11.4596(16)
_cell_angle_alpha 90.
_cell_angle_beta 90.
_cell_angle_gamma 90.
_cell_volume 925.51
_cell_formula_units_Z 4
_space_group_name_H-M_alt 'P c a 21'
_space_group_IT_number 29
loop_
_space_group_symop_id
_space_group_symop_operation_xyz
1 'x+1/2, -y, z'
2 '-x+1/2, y, z+1/2'
3 '-x, -y, z+1/2'
4 'x, y, z'
loop_
_atom_type_symbol
_atom_type_oxidation_number
Rb1+ 1
P5+ 5
Se0+ -0.5
Se2- -2
loop_
_atom_site_label
_atom_site_type_symbol
_atom_site_symmetry_multiplicity
_atom_site_Wyckoff_symbol
_atom_site_fract_x
_atom_site_fract_y
_atom_site_fract_z
_atom_site_U_iso_or_equiv
_atom_site_occupancy
Rb1 Rb1+ 4 a 0.13215(6) 0.68998(13) 1.12475(7) 0.03870(18) 1
P1 P5+ 4 a 0.16601(15) 0.2753(2) 0.81809(13) 0.0207(4) 1
Se1 Se0+ 4 a 0.08510(6) 1.17896(10) 0.99138(6) 0.02825(16) 1
Se2 Se0+ 4 a -0.10299(6) 1.24401(10) 0.93590(6) 0.02605(16) 1
Se3 Se0+ 4 a -0.12909(5) 1.56383(10) 1.01334(5) 0.02297(15) 1
Se4 Se0+ 4 a -0.14605(5) 1.76221(10) 0.84668(6) 0.02584(16) 1
Se5 Se2- 4 a 0.12603(6) 0.57787(11) 0.78962(6) 0.02671(16) 1
Se6 Se2- 4 a 0.13444(6) 0.06545(10) 0.68215(6) 0.02911(16) 1
loop_
_atom_site_aniso_label
_atom_site_aniso_type_symbol
_atom_site_aniso_U_11
_atom_site_aniso_U_22
_atom_site_aniso_U_33
_atom_site_aniso_U_12
_atom_site_aniso_U_13
_atom_site_aniso_U_23
Rb1 Rb1+ 0.0284(4) 0.0485(5) 0.0392(4) 0.0067(3) -0.0033(3) -0.0066(4)
P1 P5+ 0.0236(9) 0.0178(9) 0.0208(9) 0.0001(7) -0.0001(6) 0.0008(6)
Se1 Se0+ 0.0321(4) 0.0281(4) 0.0245(3) 0.0046(3) 0.0037(3) 0.0084(3)
Se2 Se0+ 0.0286(4) 0.0230(3) 0.0266(3) -0.0043(3) 0.0038(3) -0.0009(3)
Se3 Se0+ 0.0213(3) 0.0255(3) 0.0221(3) 0.0002(2) -0.0009(3) 0.0005(3)
Se4 Se0+ 0.0241(4) 0.0250(4) 0.0284(3) -0.0041(3) -0.0005(3) 0.0047(3)
Se5 Se2- 0.0313(4) 0.0198(4) 0.0291(4) 0.0045(3) 0.0064(3) 0.0039(3)
Se6 Se2- 0.0355(4) 0.0225(4) 0.0293(4) 0.0006(3) -0.0074(3) -0.0044(3)
#End of TTdata_170334-ICSD