
#(C) 2020 by FIZ Karlsruhe - Leibniz Institute for Information Infrastructure.  All rights reserved.
data_170751-ICSD
_database_code_ICSD 170751
_audit_creation_date 2006-04-01
_chemical_name_common 'Rubidium titanyl arsenate'
_chemical_formula_structural 'Rb Ti O As O4'
_chemical_formula_sum 'As1 O5 Rb1 Ti1'
_chemical_name_structure_type KTiOPO4#KFePO4F
_exptl_crystal_density_diffrn 4.02
_diffrn_ambient_temperature 295.
_citation_title 'A single-crystal neutron diffraction study of Rb Ti O As O4'
loop_
_citation_id
_citation_journal_full
_citation_year
_citation_journal_volume
_citation_page_first
_citation_page_last
_citation_journal_id_ASTM
primary 'Acta Crystallographica, Section C: Crystal Structure Communications'
2000 56 e73 e74 ACSCEE
loop_
_citation_author_citation_id
_citation_author_name
primary 'Nordborg, J.'
primary 'Svensson, G.'
primary 'Albertsson, J.'
_cell_length_a 13.26(2)
_cell_length_b 6.677(7)
_cell_length_c 10.766(7)
_cell_angle_alpha 90
_cell_angle_beta 90
_cell_angle_gamma 90
_cell_volume 953.19
_cell_formula_units_Z 8
_space_group_name_H-M_alt 'P n a 21'
_space_group_IT_number 33
loop_
_space_group_symop_id
_space_group_symop_operation_xyz
1 'x+1/2, -y+1/2, z'
2 '-x+1/2, y+1/2, z+1/2'
3 '-x, -y, z+1/2'
4 'x, y, z'
loop_
_atom_type_symbol
_atom_type_oxidation_number
Rb1+ 1
Ti4+ 4
As5+ 5
O2- -2
loop_
_atom_site_label
_atom_site_type_symbol
_atom_site_symmetry_multiplicity
_atom_site_Wyckoff_symbol
_atom_site_fract_x
_atom_site_fract_y
_atom_site_fract_z
_atom_site_U_iso_or_equiv
_atom_site_occupancy
Rb1 Rb1+ 4 a .3829(3) .7824(5) .6499(4) .0228(16) 1.
Rb2 Rb1+ 4 a .1092(2) .6936(5) .9025(4) .0191(16) 1.
Ti1 Ti4+ 4 a .3740(3) .5053(9) .9782(7) .005(2) 1.
Ti2 Ti4+ 4 a .2487(4) .2699(8) .7288(5) .004(2) 1.
As1 As5+ 4 a .4997(2) .3284(4) .7213(4) .0055(10) 1.
As2 As5+ 4 a .17972(18) .5050(5) .4667(4) .0065(10) 1.
O1 O2- 4 a .4878(3) .4890(6) .8374(4) .0118(17) 1.
O2 O2- 4 a .5106(3) .4610(6) .5885(4) .0113(18) 1.
O3 O2- 4 a .3948(3) .1877(5) .6990(4) .0098(15) 1.
O4 O2- 4 a .6000(3) .1765(5) .7407(4) .0103(16) 1.
O5 O2- 4 a .2813(3) .4524(6) .8382(4) .0098(16) 1.
O6 O2- 4 a .2176(3) .0566(6) .5878(4) .0108(17) 1.
O7 O2- 4 a .1102(3) .3031(6) .4311(4) .0112(16) 1.
O8 O2- 4 a .1070(3) .7036(5) .4984(4) .0119(16) 1.
O9 O2- 4 a .2588(3) .5448(5) .3449(4) .0106(17) 1.
O10 O2- 4 a .2571(3) .4590(6) .5869(16) .0122(18) 1.
loop_
_atom_site_aniso_label
_atom_site_aniso_type_symbol
_atom_site_aniso_U_11
_atom_site_aniso_U_22
_atom_site_aniso_U_33
_atom_site_aniso_U_12
_atom_site_aniso_U_13
_atom_site_aniso_U_23
Rb1 Rb1+ .0245(16) .0104(13) .034(2) .0035(11) -.0085(14) -.0046(14)
Rb2 Rb1+ .0147(14) .0148(14) .028(2) .0031(11) -.0016(13) -.0026(13)
Ti1 Ti4+ .007(2) .005(2) .005(3) -.001(2) .000(2) .001(2)
Ti2 Ti4+ .0038(19) .005(2) .005(2) .0002(17) -.0007(17) .000(2)
As1 As5+ .0059(10) .0039(10) .0066(10) -.0007(11) .0009(8) -.0007(12)
As2 As5+ .0093(10) .0037(10) .0065(10) .0008(12) .0001(15) .0004(8)
O1 O2- .0115(17) .0115(16) .0123(19) -.0036(13) .0031(14) -.0058(14)
O2 O2- .0126(18) .0108(17) .0107(18) .0023(14) .0035(14) .0037(14)
O3 O2- .0090(15) .0075(14) .0130(17) -.0004(12) .0002(13) -.0018(14)
O4 O2- .0077(15) .0081(15) .0150(19) .0008(12) -.0014(14) .0012(14)
O5 O2- .0098(16) .0095(16) .0099(17) .0008(12) -.0021(14) -.0031(14)
O6 O2- .0122(17) .0099(16) .0104(17) .0003(13) -.0038(15) -.0021(14)
O7 O2- .0172(17) .0049(14) .0114(17) -.0004(13) -.0040(14) -.0008(15)
O8 O2- .0146(16) .0045(15) .0165(18) .0015(13) .0044(14) .0006(14)
O9 O2- .0127(17) .0094(17) .0097(17) .0028(14) .0049(15) .0037(14)
O10 O2- .018(2) .0100(17) .0088(18) -.0038(15) -.0027(15) .0036(15)
#End of TTdata_170751-ICSD