
#(C) 2020 by FIZ Karlsruhe - Leibniz Institute for Information Infrastructure.  All rights reserved.
data_170949-ICSD
_database_code_ICSD 170949
_audit_creation_date 2006-04-01
_chemical_name_common 'Ammonium fluoroborophosphate'
_chemical_formula_structural 'N H4 (B P O4 F)'
_chemical_formula_sum 'H4 B1 F1 N1 O4 P1'
_exptl_crystal_density_diffrn 2.17
_citation_title

;
N H4 [B P O4 F]: A novel open-framework ammonium fluorinated borophosphate
with a zeolite-like structure related to gismondine topology
;
loop_
_citation_id
_citation_journal_full
_citation_year
_citation_journal_volume
_citation_page_first
_citation_page_last
_citation_journal_id_ASTM
primary 'Chemical Communications (Cambridge, United Kingdom)' 2004 2004 1272
1273 CHCOFS
loop_
_citation_author_citation_id
_citation_author_name
primary 'Li, M.-R.'
primary 'Liu, W.'
primary 'Ge, M.-H.'
primary 'Chen, H.-H.'
primary 'Yang, X.-X.'
primary 'Zhao, J.-T.'
_cell_length_a 7.5913(9)
_cell_length_b 7.5913(9)
_cell_length_c 7.5913(9)
_cell_angle_alpha 90.
_cell_angle_beta 90.
_cell_angle_gamma 90.
_cell_volume 437.47
_cell_formula_units_Z 4
_space_group_name_H-M_alt 'P 21 3'
_space_group_IT_number 198
loop_
_space_group_symop_id
_space_group_symop_operation_xyz
1 '-z+1/2, -x, y+1/2'
2 '-y+1/2, -z, x+1/2'
3 '-x+1/2, -y, z+1/2'
4 '-z, x+1/2, -y+1/2'
5 '-y, z+1/2, -x+1/2'
6 '-x, y+1/2, -z+1/2'
7 'z+1/2, -x+1/2, -y'
8 'y+1/2, -z+1/2, -x'
9 'x+1/2, -y+1/2, -z'
10 'z, x, y'
11 'y, z, x'
12 'x, y, z'
loop_
_atom_type_symbol
_atom_type_oxidation_number
P5+ 5
F1- -1
O2- -2
B3+ 3
N3- -3
H1+ 1
loop_
_atom_site_label
_atom_site_type_symbol
_atom_site_symmetry_multiplicity
_atom_site_Wyckoff_symbol
_atom_site_fract_x
_atom_site_fract_y
_atom_site_fract_z
_atom_site_U_iso_or_equiv
_atom_site_occupancy
P1 P5+ 4 a 0.10009(11) 0.39991(11) 0.60009(11) 0.0284(4) 1
F1 F1- 4 a 0.2610(3) 0.2610(3) 0.2610(3) 0.0494(10) 1
O1 O2- 12 b 0.2948(3) 0.3905(3) 0.5433(2) 0.0326(6) 1
O2 O2- 4 a -0.0126(3) 0.5126(3) 0.4874(3) 0.0406(11) 1
B1 B3+ 4 a 0.3665(5) 0.3665(5) 0.3665(5) 0.0348(19) 1
N1 N3- 4 a 0.1300(3) 0.8700(3) 0.3700(3) 0.0419(13) 1
H1 H1+ 12 b 0.2476 0.8959 0.4211 0.05 1
H2 H1+ 4 a 0.0422 0.9578 0.4578 0.05 1
loop_
_atom_site_aniso_label
_atom_site_aniso_type_symbol
_atom_site_aniso_U_11
_atom_site_aniso_U_22
_atom_site_aniso_U_33
_atom_site_aniso_U_12
_atom_site_aniso_U_13
_atom_site_aniso_U_23
P1 P5+ 0.0284(4) 0.0284(4) 0.0284(4) 0.0006(5) -0.0006(5) 0.0006(5)
F1 F1- 0.0494(10) 0.0494(10) 0.0494(10) -0.0094(12) -0.0094(12) -0.0094(12)
O1 O2- 0.0271(12) 0.0427(13) 0.0280(13) -0.0015(14) 0.0013(10) -0.0010(14)
O2 O2- 0.0406(11) 0.0406(11) 0.0406(11) 0.0065(12) -0.0065(12) 0.0065(12)
B1 B3+ 0.0348(19) 0.0348(19) 0.0348(19) -0.004(2) -0.004(2) -0.004(2)
N1 N3- 0.0419(13) 0.0419(13) 0.0419(13) 0.0018(15) 0.0018(15) -0.0018(15)
#End of TTdata_170949-ICSD