
#(C) 2020 by FIZ Karlsruhe - Leibniz Institute for Information Infrastructure.  All rights reserved.
data_171421-ICSD
_database_code_ICSD 171421
_audit_creation_date 2006-10-01
_audit_update_record 2011-02-01
_chemical_name_common 'Sodium tetracalcium tris(borate)'
_chemical_formula_structural 'Na Ca4 (B O3)3'
_chemical_formula_sum 'B3 Ca4 Na1 O9'
_chemical_name_structure_type NaCa4(BO3)3
_exptl_crystal_density_diffrn 3.06
_citation_title

;
Structure determination and relative properties of novel non-centrosymmetric
borates M M'4 (B O3)3 (M= Na, M'= Ca and M= K, M'= Ca, Sr)
;
loop_
_citation_id
_citation_journal_full
_citation_year
_citation_journal_volume
_citation_page_first
_citation_page_last
_citation_journal_id_ASTM
primary 'Inorganic Chemistry' 2006 45 3042 3047 INOCAJ
loop_
_citation_author_citation_id
_citation_author_name
primary 'Wu, L.'
primary 'Chen, X.-L.'
primary 'Xu, Y.-P.'
primary 'Sun, Y.P.'
_cell_length_a 10.68004(11)
_cell_length_b 11.28574(11)
_cell_length_c 6.48521(6)
_cell_angle_alpha 90.
_cell_angle_beta 90.
_cell_angle_gamma 90.
_cell_volume 781.68
_cell_formula_units_Z 4
_space_group_name_H-M_alt 'A m a 2'
_space_group_IT_number 40
loop_
_space_group_symop_id
_space_group_symop_operation_xyz
1 'x+1/2, -y, z'
2 '-x+1/2, y, z'
3 '-x, -y, z'
4 'x, y, z'
5 'x+1/2, -y+1/2, z+1/2'
6 '-x+1/2, y+1/2, z+1/2'
7 '-x, -y+1/2, z+1/2'
8 'x, y+1/2, z+1/2'
loop_
_atom_type_symbol
_atom_type_oxidation_number
Ca2+ 2
Na1+ 1
O2- -2
B3+ 3
loop_
_atom_site_label
_atom_site_type_symbol
_atom_site_symmetry_multiplicity
_atom_site_Wyckoff_symbol
_atom_site_fract_x
_atom_site_fract_y
_atom_site_fract_z
_atom_site_U_iso_or_equiv
_atom_site_occupancy
Ca1 Ca2+ 4 b .25 .3516(3) .0567(8) .0095(10) 1
Ca2 Ca2+ 8 c -.0281(2) .2149(2) .9244(7) .0078(5) 1
Ca3 Ca2+ 4 a . . .2829 .0139(10) 1
Na1 Na1+ 4 b .25 .5787(7) .3510(13) .038(3) 1
O1 O2- 4 b .25 .3582(9) .4296(20) .013(3) 1
O2 O2- 4 b .25 .5490(11) .9287(23) .031(4) 1
O3 O2- 8 c .1368(9) .6683(7) .6764(13) .014(2) 1
O4 O2- 8 c .0322(6) .3972(7) .1033(17) .013(2) 1
O5 O2- 8 c .8593(9) .1955(6) .2380(15) .001(2) 1
O6 O2- 4 a . .5 .412(2) .016(4) 1
B1 B3+ 4 b .25 .617(2) .759(4) .027(7) 1
B2 B3+ 4 b .25 .329(2) .624(3) .002(5) 1
B3 B3+ 4 a . .5 .203(3) .005(5) 1
#End of TTdata_171421-ICSD