
#(C) 2020 by FIZ Karlsruhe - Leibniz Institute for Information Infrastructure.  All rights reserved.
data_171422-ICSD
_database_code_ICSD 171422
_audit_creation_date 2006-10-01
_chemical_name_common 'Potassium tetracalcium borate'
_chemical_formula_structural 'K Ca4 (B O3)3'
_chemical_formula_sum 'B3 Ca4 K1 O9'
_chemical_name_structure_type NaCa4(BO3)3
_exptl_crystal_density_diffrn 3.13
_citation_title

;
Structure determination and relative properties of novel non-centrosymmetric
borates M M'4 (B O3)3 (M= Na, M'= Ca and M= K, M'= Ca, Sr)
;
loop_
_citation_id
_citation_journal_full
_citation_year
_citation_journal_volume
_citation_page_first
_citation_page_last
_citation_journal_id_ASTM
primary 'Inorganic Chemistry' 2006 45 3042 3047 INOCAJ
loop_
_citation_author_citation_id
_citation_author_name
primary 'Wu, L.'
primary 'Chen, X.-L.'
primary 'Xu, Y.-P.'
primary 'Sun, Y.P.'
_cell_length_a 10.63455(10)
_cell_length_b 11.51705(11)
_cell_length_c 6.51942(6)
_cell_angle_alpha 90.
_cell_angle_beta 90.
_cell_angle_gamma 90.
_cell_volume 798.49
_cell_formula_units_Z 4
_space_group_name_H-M_alt 'A m a 2'
_space_group_IT_number 40
loop_
_space_group_symop_id
_space_group_symop_operation_xyz
1 'x+1/2, -y, z'
2 '-x+1/2, y, z'
3 '-x, -y, z'
4 'x, y, z'
5 'x+1/2, -y+1/2, z+1/2'
6 '-x+1/2, y+1/2, z+1/2'
7 '-x, -y+1/2, z+1/2'
8 'x, y+1/2, z+1/2'
loop_
_atom_type_symbol
_atom_type_oxidation_number
Ca2+ 2
K1+ 1
O2- -2
B3+ 3
loop_
_atom_site_label
_atom_site_type_symbol
_atom_site_symmetry_multiplicity
_atom_site_Wyckoff_symbol
_atom_site_fract_x
_atom_site_fract_y
_atom_site_fract_z
_atom_site_U_iso_or_equiv
_atom_site_occupancy
Ca1 Ca2+ 4 b .25 .3476(3) .0578(8) .0089(11) 1
Ca2 Ca2+ 8 c -.0283(2) .2139(2) .9256(6) .0134(7) 1
Ca3 Ca2+ 4 a . . .2829 .0190(10) 1
K1 K1+ 4 b .25 .5803(3) .3144(9) .0215(13) 1
O1 O2- 4 b .25 .3554(8) .4283(19) .013(4) 1
O2 O2- 4 b .25 .5488(8) .8976(22) .027(4) 1
O3 O2- 8 c .1359(7) .6708(6) .6769(11) .024(2) 1
O4 O2- 8 c .0307(6) .4021(6) .1027(16) .002(2) 1
O5 O2- 8 c .8602(6) .1978(6) .2397(11) .002(2) 1
O6 O2- 4 a . .5 .417(2) .003(3) 1
B1 B3+ 4 b .25 .619(3) .735(4) .039(8) 1
B2 B3+ 4 b .25 .323(2) .625(3) .004(5) 1
B3 B3+ 4 a . .5 .209(4) .024(8) 1
#End of TTdata_171422-ICSD