
#(C) 2020 by FIZ Karlsruhe - Leibniz Institute for Information Infrastructure.  All rights reserved.
data_172383-ICSD
_database_code_ICSD 172383
_audit_creation_date 2007-04-01
_chemical_name_common 'Diselenium diborate'
_chemical_formula_structural 'Se2 B2 O7'
_chemical_formula_sum 'B2 O7 Se2'
_exptl_crystal_density_diffrn 3.62
_citation_title 'Se2 (B2 O7): A new type of second-order NLO material'
loop_
_citation_id
_citation_journal_full
_citation_year
_citation_journal_volume
_citation_page_first
_citation_page_last
_citation_journal_id_ASTM
primary 'Journal of the American Chemical Society' 2006 128 7750 7751 JACSAT
loop_
_citation_author_citation_id
_citation_author_name
primary 'Fang Kong'
primary 'Huang, S.-P.'
primary 'Sun, Z.-M.'
primary 'Mao, J.-G.'
primary 'Cheng, W.-D.'
_cell_length_a 7.4815(6)
_cell_length_b 7.8984(5)
_cell_length_c 9.0478(7)
_cell_angle_alpha 90.
_cell_angle_beta 90.
_cell_angle_gamma 90.
_cell_volume 534.65
_cell_formula_units_Z 4
_space_group_name_H-M_alt 'P 21 21 21'
_space_group_IT_number 19
loop_
_space_group_symop_id
_space_group_symop_operation_xyz
1 '-x, y+1/2, -z+1/2'
2 'x+1/2, -y+1/2, -z'
3 '-x+1/2, -y, z+1/2'
4 'x, y, z'
loop_
_atom_type_symbol
_atom_type_oxidation_number
Se4+ 4
B3+ 3
O2- -2
loop_
_atom_site_label
_atom_site_type_symbol
_atom_site_symmetry_multiplicity
_atom_site_Wyckoff_symbol
_atom_site_fract_x
_atom_site_fract_y
_atom_site_fract_z
_atom_site_U_iso_or_equiv
_atom_site_occupancy
Se1 Se4+ 4 a 0.40689(10) 0.39416(8) 0.37674(7) 0.00888(19) 1
Se2 Se4+ 4 a 0.42683(10) -0.16637(8) 0.59659(7) 0.00848(19) 1
B1 B3+ 4 a 0.0715(12) -0.0151(9) 0.3573(8) 0.0098(15) 1
B2 B3+ 4 a 0.4044(13) 0.0518(10) 0.3544(8) 0.0105(16) 1
O1 O2- 4 a 0.5795(8) 0.5128(6) 0.3091(5) 0.0126(10) 1
O2 O2- 4 a 0.4115(7) 0.4655(6) 0.5534(5) 0.0130(10) 1
O3 O2- 4 a 0.5137(6) 0.2038(6) 0.3898(6) 0.0107(10) 1
O4 O2- 4 a 0.4961(7) 0.0019(6) 0.7001(5) 0.0128(11) 1
O5 O2- 4 a 0.4966(7) -0.0918(6) 0.4290(5) 0.0108(10) 1
O6 O2- 4 a 0.6052(7) -0.2988(5) 0.6206(5) 0.0123(10) 1
O7 O2- 4 a 0.2237(6) 0.0798(6) 0.3900(5) 0.0098(10) 1
loop_
_atom_site_aniso_label
_atom_site_aniso_type_symbol
_atom_site_aniso_U_11
_atom_site_aniso_U_22
_atom_site_aniso_U_33
_atom_site_aniso_U_12
_atom_site_aniso_U_13
_atom_site_aniso_U_23
Se1 Se4+ 0.0083(3) 0.0081(3) 0.0103(3) -0.0002(3) -0.0020(3) -0.0006(2)
Se2 Se4+ 0.0086(3) 0.0077(3) 0.0092(3) -0.0004(3) 0.0001(3) -0.0003(2)
B1 B3+ 0.009(4) 0.011(4) 0.010(3) -0.006(3) 0.005(4) 0.003(3)
B2 B3+ 0.015(4) 0.010(3) 0.006(3) -0.007(3) -0.002(4) -0.001(3)
O1 O2- 0.014(3) 0.014(2) 0.010(2) -0.007(2) 0.000(3) -0.0012(19)
O2 O2- 0.010(3) 0.019(3) 0.011(2) -0.003(2) 0.004(3) -0.0069(19)
O3 O2- 0.011(2) 0.005(2) 0.016(3) -0.0023(17) 0.000(2) 0.000(2)
O4 O2- 0.022(3) 0.010(2) 0.006(2) -0.005(2) 0.002(2) -0.002(2)
O5 O2- 0.016(3) 0.010(2) 0.006(2) 0.000(2) 0.000(2) 0.004(2)
O6 O2- 0.016(3) 0.004(2) 0.017(2) 0.0049(19) 0.000(3) 0.0022(18)
O7 O2- 0.010(2) 0.013(3) 0.007(2) -0.0011(19) -0.001(2) -0.003(2)
#End of TTdata_172383-ICSD