
#(C) 2020 by FIZ Karlsruhe - Leibniz Institute for Information Infrastructure.  All rights reserved.
data_172400-ICSD
_database_code_ICSD 172400
_audit_creation_date 2007-04-01
_audit_update_record 2013-08-01
_chemical_name_common 'Tripotassium hexaborate bromide'
_chemical_formula_structural 'K3 (B6 O10) Br'
_chemical_formula_sum 'B6 Br1 K3 O10'
_chemical_name_structure_type K3B6O10Br
_exptl_crystal_density_diffrn 2.67
_citation_title
'Potassium bromo-borate K3 [B6 O10] Br - a new nonlinear optical material'
loop_
_citation_id
_citation_journal_full
_citation_year
_citation_journal_volume
_citation_page_first
_citation_page_last
_citation_journal_id_ASTM
primary Kristallografiya 2006 51 254 258 KRISAJ
loop_
_citation_author_citation_id
_citation_author_name
primary 'Al'-Ama, A.G.'
primary 'Belokoneva, E.L.'
primary 'Stefanovich, S.Yu.'
primary 'Dimitrova, O.V.'
primary 'Mochenova, N.N.'
_cell_length_a 10.124(3)
_cell_length_b 10.124(3)
_cell_length_c 8.867(2)
_cell_angle_alpha 90.
_cell_angle_beta 90.
_cell_angle_gamma 120.
_cell_volume 787.07
_cell_formula_units_Z 3
_space_group_name_H-M_alt 'R 3 m H'
_space_group_IT_number 160
loop_
_space_group_symop_id
_space_group_symop_operation_xyz
1 '-x+y, y, z'
2 'x, x-y, z'
3 '-y, -x, z'
4 '-x+y, -x, z'
5 '-y, x-y, z'
6 'x, y, z'
7 '-x+y+2/3, y+1/3, z+1/3'
8 'x+2/3, x-y+1/3, z+1/3'
9 '-y+2/3, -x+1/3, z+1/3'
10 '-x+y+2/3, -x+1/3, z+1/3'
11 '-y+2/3, x-y+1/3, z+1/3'
12 'x+2/3, y+1/3, z+1/3'
13 '-x+y+1/3, y+2/3, z+2/3'
14 'x+1/3, x-y+2/3, z+2/3'
15 '-y+1/3, -x+2/3, z+2/3'
16 '-x+y+1/3, -x+2/3, z+2/3'
17 '-y+1/3, x-y+2/3, z+2/3'
18 'x+1/3, y+2/3, z+2/3'
loop_
_atom_type_symbol
_atom_type_oxidation_number
Br1- -1
K1+ 1
B3+ 3
O2- -2
loop_
_atom_site_label
_atom_site_type_symbol
_atom_site_symmetry_multiplicity
_atom_site_Wyckoff_symbol
_atom_site_fract_x
_atom_site_fract_y
_atom_site_fract_z
_atom_site_B_iso_or_equiv
_atom_site_occupancy
Br1 Br1- 3 a 0 0 0 1.71(3) 1.
K1 K1+ 9 b 0.3056(3) 0.1528(2) 0.2240(3) 1.22(4) 1.
B1 B3+ 9 b 0.5159(4) 0.0318(7) 0.0028(9) .2(1) 1.
B2 B3+ 9 b 0.0874(5) 0.1748(9) 0.552(1) .8(2) 1.
O1 O2- 18 c 0.2324(5) 0.2335(5) 0.6340(6) .9(1) 1.
O2 O2- 9 b 0.4424(7) 0.2212(7) 0.7324(7) 1.0(1) 1.
O3 O2- 3 a 0 0 0.564(2) .9(2) 1.
#End of TTdata_172400-ICSD