
#(C) 2020 by FIZ Karlsruhe - Leibniz Institute for Information Infrastructure.  All rights reserved.
data_172402-ICSD
_database_code_ICSD 172402
_audit_creation_date 2007-04-01
_chemical_name_common 'Hexastrontium boron pentakis(phosphate)'
_chemical_formula_structural 'Sr6 B (P O4)5'
_chemical_formula_sum 'B1 O20 P5 Sr6'
_exptl_crystal_density_diffrn 3.68
_diffrn_ambient_temperature 303.
_citation_title

;
Investigation of crystal structure and associated electronic structure of Sr6
B P5 O20
;
loop_
_citation_id
_citation_journal_full
_citation_year
_citation_journal_volume
_citation_page_first
_citation_page_last
_citation_journal_id_ASTM
primary 'Journal of Solid State Chemistry' 2006 179 968 973 JSSCBI
loop_
_citation_author_citation_id
_citation_author_name
primary 'Ehrenberg, H.'
primary 'Laubach, S.'
primary 'Schmidt, P.C.'
primary 'McSweeney, R.'
primary 'Knapp, M.'
primary 'Mishra, K.C.'
_cell_length_a 9.7895(7)
_cell_length_b 9.7895(7)
_cell_length_c 19.032(3)
_cell_angle_alpha 90.
_cell_angle_beta 90.
_cell_angle_gamma 90.
_cell_volume 1823.92
_cell_formula_units_Z 4
_space_group_name_H-M_alt 'I -4 c 2'
_space_group_IT_number 120
loop_
_space_group_symop_id
_space_group_symop_operation_xyz
1 'y, x, -z+1/2'
2 '-y, -x, -z+1/2'
3 'y, -x, -z'
4 '-y, x, -z'
5 'x, -y, z+1/2'
6 '-x, y, z+1/2'
7 '-x, -y, z'
8 'x, y, z'
9 'y+1/2, x+1/2, -z'
10 '-y+1/2, -x+1/2, -z'
11 'y+1/2, -x+1/2, -z+1/2'
12 '-y+1/2, x+1/2, -z+1/2'
13 'x+1/2, -y+1/2, z'
14 '-x+1/2, y+1/2, z'
15 '-x+1/2, -y+1/2, z+1/2'
16 'x+1/2, y+1/2, z+1/2'
loop_
_atom_type_symbol
_atom_type_oxidation_number
Sr2+ 2
P5+ 5
B3+ 3
O2- -2
loop_
_atom_site_label
_atom_site_type_symbol
_atom_site_symmetry_multiplicity
_atom_site_Wyckoff_symbol
_atom_site_fract_x
_atom_site_fract_y
_atom_site_fract_z
_atom_site_B_iso_or_equiv
_atom_site_occupancy
Sr1 Sr2+ 16 i -0.00242(10) 0.19982(8) -0.16504(4) . 1.
Sr2 Sr2+ 8 h -0.22145(7) 0.27855(7) 0 . 1.
P1 P5+ 4 b 0 0 0 . 1.
P2 P5+ 16 i -0.0214(2) 0.2949(2) -0.34864(9) . 1.
B1 B3+ 4 c 0 0.5 -0.25 . 1.
O1 O2- 16 i -0.0778(6) 0.4013(6) -0.2912(2) . 1.
O2 O2- 16 i 0.0270(7) 0.1292(6) -0.0442(3) . 1.
O3 O2- 16 i 0.0055(7) 0.1634(6) -0.3068(3) . 1.
O4 O2- 16 i -0.1425(6) 0.2762(7) -0.3949(3) . 1.
O5 O2- 16 i 0.1036(6) 0.3534(6) -0.3835(3) . 1.
loop_
_atom_site_aniso_label
_atom_site_aniso_type_symbol
_atom_site_aniso_U_11
_atom_site_aniso_U_22
_atom_site_aniso_U_33
_atom_site_aniso_U_12
_atom_site_aniso_U_13
_atom_site_aniso_U_23
Sr1 Sr2+ 0.0181(5) 0.0081(4) 0.0105(3) 0.0009(4) 0.0007(4) 0.0001(3)
Sr2 Sr2+ 0.0117(3) 0.0117(3) 0.0070(4) -0.0005(4) 0.0005(4) -0.0005(4)
P1 P5+ 0.0098(12) 0.0098(12) 0.0070(18) 0 0 0
P2 P5+ 0.0096(11) 0.0072(11) 0.0091(8) 0.0004(8) -0.0002(8) 0.0001(8)
B1 B3+ 0.009(5) 0.009(5) 0.011(8) 0 0 0
O1 O2- 0.004(3) 0.011(3) 0.011(2) -0.001(2) -0.002(2) -0.004(2)
O2 O2- 0.024(4) 0.015(3) 0.013(3) -0.006(3) -0.002(3) 0.005(3)
O3 O2- 0.028(4) 0.010(3) 0.012(2) 0.005(3) 0.002(4) 0.001(2)
O4 O2- 0.018(3) 0.024(4) 0.018(3) -0.001(3) -0.003(3) -0.009(3)
O5 O2- 0.015(3) 0.015(3) 0.020(3) -0.007(3) 0.012(3) -0.007(3)
#End of TTdata_172402-ICSD