
#(C) 2020 by FIZ Karlsruhe - Leibniz Institute for Information Infrastructure.  All rights reserved.
data_172480-ICSD
_database_code_ICSD 172480
_audit_creation_date 2007-04-01
_chemical_name_common 'Bismuth dihydroxo tetraborate hydroxide'
_chemical_formula_structural 'Bi (B4 O6 (O H)2) (O H)'
_chemical_formula_sum 'H3 B4 Bi1 O9'
_exptl_crystal_density_diffrn 3.79
_citation_title

;
Bismuth borates: One-dimensional borate chains and nonlinear optical
properties
;
loop_
_citation_id
_citation_journal_full
_citation_year
_citation_journal_volume
_citation_page_first
_citation_page_last
_citation_journal_id_ASTM
primary 'Chemistry of Materials' 2005 17 4174 4180 CMATEX
loop_
_citation_author_citation_id
_citation_author_name
primary 'Li, L.'
primary 'Li, G.'
primary 'Wang, Y.'
primary 'Liao, F.'
primary 'Lin, J.'
_cell_length_a 4.300(1)
_cell_length_b 8.587(2)
_cell_length_c 10.518(2)
_cell_angle_alpha 113.11(3)
_cell_angle_beta 100.50(3)
_cell_angle_gamma 90.36(3)
_cell_volume 349.92
_cell_formula_units_Z 2
_space_group_name_H-M_alt 'P 1'
_space_group_IT_number 1
loop_
_space_group_symop_id
_space_group_symop_operation_xyz
1 'x, y, z'
loop_
_atom_type_symbol
_atom_type_oxidation_number
Bi3+ 3
O2- -2
B3+ 3
H1+ 1
loop_
_atom_site_label
_atom_site_type_symbol
_atom_site_symmetry_multiplicity
_atom_site_Wyckoff_symbol
_atom_site_fract_x
_atom_site_fract_y
_atom_site_fract_z
_atom_site_U_iso_or_equiv
_atom_site_occupancy
Bi1 Bi3+ 1 a 0.95118(5) 0.51273(4) 0.90012(4) .0098(2) 1.
Bi2 Bi3+ 1 a 0.24814(7) 0.15961(5) 0.98078(4) .0118(2) 1.
O1 O2- 1 a 0.995(4) 0.104(2) 0.184(2) 0.013(3) 1.
O2 O2- 1 a 0.194(4) 0.567(2) 0.696(2) 0.013(3) 1.
O3 O2- 1 a 0.112(4) 0.935(2) 0.320(1) 0.013(3) 1.
O4 O2- 1 a 0.869(4) 0.798(2) 0.077(1) 0.018(3) 1.
O5 O2- 1 a 0.419(3) -0.076(2) 0.149(2) 0.012(3) 1.
O6 O2- 1 a 0.839(4) 0.188(2) 0.406(1) 0.011(3) 1.
O7 O2- 1 a 0.521(5) 0.344(2) 0.619(2) 0.017(3) 1.
O8 O2- 1 a 0.679(4) 0.331(3) 0.254(2) 0.017(3) 1.
O9 O2- 1 a 0.094(5) 0.737(2) 0.556(2) 0.022(4) 1.
O10 O2- 1 a 0.340(5) 0.484(3) 0.471(2) 0.021(4) 1.
O11 O2- 1 a 0.325(3) 0.847(2) 0.804(2) 0.015(3) 1.
O12 O2- 1 a 0.806(4) 0.755(2) 0.737(2) 0.014(3) 1.
O13 O2- 1 a 0.956(5) 0.032(3) 0.552(2) 0.030(4) 1.
O14 O2- 1 a 0.230(5) 0.634(2) 0.337(2) 0.020(3) 1.
O15 O2- 1 a 0.412(4) 0.619(2) 0.999(2) 0.018(3) 1.
O16 O2- 1 a 0.775(3) 0.051(2) 0.881(2) 0.014(3) 1.
O17 O2- 1 a 0.979(4) 0.397(2) 0.055(1) 0.013(3) 1.
O18 O2- 1 a 0.212(4) 0.271(2) 0.831(2) 0.021(4) 1.
B1 B3+ 1 a 0.973(8) 0.036(4) 0.424(2) 0.017(5) 1.
B2 B3+ 1 a 0.092(6) -0.056(4) 0.184(2) 0.019(6) 1.
B3 B3+ 1 a 0.845(6) 0.218(3) 0.290(2) 0.012(4) 1.
B4 B3+ 1 a 0.098(5) 0.734(2) 0.698(2) 0.009(4) 1.
B5 B3+ 1 a 0.358(6) 0.478(3) 0.606(2) 0.009(4) 1.
B6 B3+ 1 a 0.209(8) 0.618(3) 0.454(3) 0.014(5) 1.
B7 B3+ 1 a 0.654(4) 0.872(2) 0.821(2) 0.005(3) 1.
B8 B3+ 1 a 0.556(4) 0.777(2) 0.084(2) 0.003(2) 1.
H1 H1+ 1 a 0.66(7) 0.32(3) 0.57(3) 0.026 1.
H2 H1+ 1 a 0.59(7) 0.39(4) 0.32(3) 0.025 1.
H3 H1+ 1 a 0.96(7) 0.93(4) 0.54(3) 0.045 1.
H4 H1+ 1 a 0.05(5) 0.63(3) 0.29(2) 0.03 1.
H5 H1+ 1 a 0.89(10) 0.44(6) 0.14(4) 0.019 1.
H6 H1+ 1 a 0.29(12) 0.23(6) 0.75(5) 0.031 1.
#End of TTdata_172480-ICSD