
#(C) 2020 by FIZ Karlsruhe - Leibniz Institute for Information Infrastructure.  All rights reserved.
data_173417-ICSD
_database_code_ICSD 173417
_audit_creation_date 2009-02-01
_audit_update_record 2014-08-01
_chemical_name_common 'Dipotassium hexaselenodiphosphate(V)'
_chemical_formula_structural 'K2 (P2 Se6)'
_chemical_formula_sum 'K2 P2 Se6'
_chemical_name_structure_type K2P2Se6
_exptl_crystal_density_diffrn 3.54
_diffrn_ambient_temperature 298.
_citation_title

;
Helical polymer 1/(infinite)[P2 Se6(2-)]: strong second harmonic generation
response and phase-change properties of its K and Rb salts
;
loop_
_citation_id
_citation_journal_full
_citation_year
_citation_journal_volume
_citation_page_first
_citation_page_last
_citation_journal_id_ASTM
primary 'Journal of the American Chemical Society' 2007 129 14996 15006 JACSAT
loop_
_citation_author_citation_id
_citation_author_name
primary 'Chung In'
primary 'Malliakas, C.D.'
primary 'Jang, J.J.'
primary 'Canlas, C.G.'
primary 'Weliky, D.P.'
primary 'Kanatzidis, M.G.'
_cell_length_a 7.2746(8)
_cell_length_b 7.2746(8)
_cell_length_c 18.871(4)
_cell_angle_alpha 90.
_cell_angle_beta 90.
_cell_angle_gamma 120.
_cell_volume 864.86
_cell_formula_units_Z 3
_space_group_name_H-M_alt 'P 31 2 1'
_space_group_IT_number 152
loop_
_space_group_symop_id
_space_group_symop_operation_xyz
1 'x-y, -y, -z+2/3'
2 '-x, -x+y, -z+1/3'
3 'y, x, -z'
4 '-x+y, -x, z+2/3'
5 '-y, x-y, z+1/3'
6 'x, y, z'
loop_
_atom_type_symbol
_atom_type_oxidation_number
Se1- -1
Se2- -2
K1+ 1
P4+ 4
loop_
_atom_site_label
_atom_site_type_symbol
_atom_site_symmetry_multiplicity
_atom_site_Wyckoff_symbol
_atom_site_fract_x
_atom_site_fract_y
_atom_site_fract_z
_atom_site_U_iso_or_equiv
_atom_site_occupancy
Se1 Se1- 6 c 0.07574(7) 0.25839(7) 0.22327(2) 0.02683(11) 1
Se2 Se2- 6 c 0.27689(8) 0.26490(10) 0.39571(3) 0.04410(15) 1
Se3 Se2- 6 c 0.45720(8) 0.24953(9) 0.08010(2) 0.03391(13) 1
K1 K1+ 6 c 0.5542(2) 0.2697(2) 0.25379(6) 0.0487(3) 1
P1 P4+ 6 c 0.12847(16) 0.05920(16) 0.05480(5) 0.0200(2) 1
loop_
_atom_site_aniso_label
_atom_site_aniso_type_symbol
_atom_site_aniso_U_11
_atom_site_aniso_U_22
_atom_site_aniso_U_33
_atom_site_aniso_U_12
_atom_site_aniso_U_13
_atom_site_aniso_U_23
Se1 Se1- 0.0296(2) 0.0220(2) 0.02088(18) 0.00684(17) 0.00421(17) -0.00075(16)
Se2 Se2- 0.0228(2) 0.0542(3) 0.0377(3) 0.0060(2) -0.0020(2) -0.0073(2)
Se3 Se2- 0.0206(2) 0.0524(3) 0.0251(2) 0.0154(2) -0.00221(17) 0.0001(2)
K1 K1+ 0.0582(8) 0.0709(9) 0.0334(5) 0.0445(7) -0.0068(5) -0.0023(5)
P1 P4+ 0.0215(5) 0.0221(5) 0.0160(4) 0.0106(4) 0.0001(4) -0.0003(4)
#End of TTdata_173417-ICSD