
#(C) 2020 by FIZ Karlsruhe - Leibniz Institute for Information Infrastructure.  All rights reserved.
data_173745-ICSD
_database_code_ICSD 173745
_audit_creation_date 2009-08-01
_chemical_name_common 'Bismuth triborate - alpha'
_chemical_formula_structural 'Bi (B3 O6)'
_chemical_formula_sum 'B3 Bi1 O6'
_chemical_name_structure_type BiB3O6
_exptl_crystal_density_diffrn 5.62
_diffrn_ambient_temperature 293.
_diffrn_ambient_pressure 4300000.
_citation_title

;
High-pressure crystal structure of the non-linear optical compound Bi B3 O6
from two-dimensional powder diffraction data
;
loop_
_citation_id
_citation_journal_full
_citation_year
_citation_journal_volume
_citation_page_first
_citation_page_last
_citation_journal_id_ASTM
primary 'Acta Crystallographica, Section B: Structural Science' 2009 65 1 10
ASBSDK
loop_
_citation_author_citation_id
_citation_author_name
primary 'Dinnebier, R.E.'
primary 'Hinrichsen, B.'
primary 'Lennie, A.'
primary 'Jansen, M.'
_cell_length_a 7.3786(5)
_cell_length_b 4.3992(3)
_cell_length_c 6.3388(5)
_cell_angle_alpha 90
_cell_angle_beta 104.374(5)
_cell_angle_gamma 90
_cell_volume 199.32
_cell_formula_units_Z 2
_space_group_name_H-M_alt 'C 1 2 1'
_space_group_IT_number 5
loop_
_space_group_symop_id
_space_group_symop_operation_xyz
1 '-x, y, -z'
2 'x, y, z'
3 '-x+1/2, y+1/2, -z'
4 'x+1/2, y+1/2, z'
loop_
_atom_type_symbol
_atom_type_oxidation_number
Bi3+ 3
B3+ 3
O2- -2
loop_
_atom_site_label
_atom_site_type_symbol
_atom_site_symmetry_multiplicity
_atom_site_Wyckoff_symbol
_atom_site_fract_x
_atom_site_fract_y
_atom_site_fract_z
_atom_site_B_iso_or_equiv
_atom_site_occupancy
Bi1 Bi3+ 2 a 0 0 0 . 1
B1 B3+ 2 b 0.5 0.128(9) 0.5 . 1
B2 B3+ 4 c 0.2641(11) 0.014(7) 0.7105(12) . 1
O1 O2- 4 c 0.3555(4) 0.9178(19) 0.5542(10) . 1
O2 O2- 4 c 0.3985(13) 0.3134(15) 0.3049(6) . 1
O3 O2- 4 c 0.2961(10) 0.1631(15) 0.9058(12) . 1
#End of TTdata_173745-ICSD