
#(C) 2020 by FIZ Karlsruhe - Leibniz Institute for Information Infrastructure.  All rights reserved.
data_173806-ICSD
_database_code_ICSD 173806
_audit_creation_date 2009-08-01
_chemical_name_common 'Potassium dihydrogen phosphate(V)'
_chemical_formula_structural 'K (H2 P O4)'
_chemical_formula_sum 'H2 K1 O4 P1'
_chemical_name_structure_type KH2PO4
_exptl_crystal_density_diffrn 2.33
_citation_title 'Structural features of the K H2 P O4: Cr single crystal'
loop_
_citation_id
_citation_journal_full
_citation_year
_citation_journal_volume
_citation_page_first
_citation_page_last
_citation_journal_id_ASTM
primary Kristallografiya 2009 54 239 246 KRISAJ
loop_
_citation_author_citation_id
_citation_author_name
primary 'Malakhova, L.F.'
primary 'Furmanova, N.G.'
primary 'Vilensky, A.I.'
primary 'Grigorieva, M.S.'
primary 'Simonov, V.I.'
primary 'Rudneva, E.B.'
primary 'Voloshin, A.E.'
_cell_length_a 7.4606(4)
_cell_length_b 7.4606(4)
_cell_length_c 6.9800(4)
_cell_angle_alpha 90.
_cell_angle_beta 90.
_cell_angle_gamma 90.
_cell_volume 388.51
_cell_formula_units_Z 4
_space_group_name_H-M_alt 'I -4 2 d'
_space_group_IT_number 122
loop_
_space_group_symop_id
_space_group_symop_operation_xyz
1 '-y, -x+1/2, z+1/4'
2 'y, -x, -z'
3 'y, x+1/2, z+1/4'
4 '-y, x, -z'
5 'x, -y+1/2, -z+1/4'
6 '-x, -y, z'
7 '-x, y+1/2, -z+1/4'
8 'x, y, z'
9 '-y+1/2, -x, z+3/4'
10 'y+1/2, -x+1/2, -z+1/2'
11 'y+1/2, x, z+3/4'
12 '-y+1/2, x+1/2, -z+1/2'
13 'x+1/2, -y, -z+3/4'
14 '-x+1/2, -y+1/2, z+1/2'
15 '-x+1/2, y, -z+3/4'
16 'x+1/2, y+1/2, z+1/2'
loop_
_atom_type_symbol
_atom_type_oxidation_number
K1+ 1
P5+ 5
O2- -2
H1+ 1
loop_
_atom_site_label
_atom_site_type_symbol
_atom_site_symmetry_multiplicity
_atom_site_Wyckoff_symbol
_atom_site_fract_x
_atom_site_fract_y
_atom_site_fract_z
_atom_site_U_iso_or_equiv
_atom_site_occupancy
K1 K1+ 4 b 0 0 0.5 . 1.
P1 P5+ 4 a 0 0 0 . 1.
O1 O2- 16 e 0.1496(2) 0.0823(1) 0.1245(2) . 1.
H1 H1+ 16 e 0.146(3) 0.186(2) 0.120(3) .111(6) .5
loop_
_atom_site_aniso_label
_atom_site_aniso_type_symbol
_atom_site_aniso_U_11
_atom_site_aniso_U_22
_atom_site_aniso_U_33
_atom_site_aniso_U_12
_atom_site_aniso_U_13
_atom_site_aniso_U_23
K1 K1+ 0.02169(12) 0.02169(12) 0.01558(29) 0 0 0
P1 P5+ 0.0124(1) 0.0124(1) 0.0158(3) 0 0 0
O1 O2- 0.0179(2) 0.0168(2) 0.0226(2) 0.0022(2) -0.0061(2) -0.0043(2)
#End of TTdata_173806-ICSD