
#(C) 2020 by FIZ Karlsruhe - Leibniz Institute for Information Infrastructure.  All rights reserved.
data_174101-ICSD
_database_code_ICSD 174101
_audit_creation_date 2010-02-01
_audit_update_record 2016-02-01
_chemical_name_common 'Lithium germanium oxide (2/7/15)'
_chemical_formula_structural 'Li2 Ge7 O15'
_chemical_formula_sum 'Ge7 Li2 O15'
_exptl_crystal_density_diffrn 4.23
_diffrn_ambient_temperature 77.
_citation_title

;
Neutron diffraction study of structural phase transition in ferroelectric Li2
Ge7 O15
;
loop_
_citation_id
_citation_journal_full
_citation_year
_citation_journal_volume
_citation_page_first
_citation_page_last
_citation_journal_id_ASTM
primary 'Journal of the Physical Society of Japan' 1987 56 2420 2427 JUPSAU
loop_
_citation_author_citation_id
_citation_author_name
primary 'Iwata, Y.'
primary 'Shibuya, I.'
primary 'Wada, M.'
primary 'Sawada, A.'
primary 'Ishibashi, Y.'
_cell_length_a 7.36
_cell_length_b 16.76
_cell_length_c 9.69
_cell_angle_alpha 90.
_cell_angle_beta 90.
_cell_angle_gamma 90.
_cell_volume 1195.29
_cell_formula_units_Z 4
_space_group_name_H-M_alt 'P b c 21'
_space_group_IT_number 29
loop_
_space_group_symop_id
_space_group_symop_operation_xyz
1 '-x, y+1/2, z'
2 'x, -y+1/2, z+1/2'
3 '-x, -y, z+1/2'
4 'x, y, z'
loop_
_atom_type_symbol
_atom_type_oxidation_number
Ge4+ 4
O2- -2
Li1+ 1
loop_
_atom_site_label
_atom_site_type_symbol
_atom_site_symmetry_multiplicity
_atom_site_Wyckoff_symbol
_atom_site_fract_x
_atom_site_fract_y
_atom_site_fract_z
_atom_site_B_iso_or_equiv
_atom_site_occupancy
Ge1 Ge4+ 4 a 0.2489(6) 0.6630(2) 0.2513(4) 1.03(3) 1.
Ge2 Ge4+ 4 a 0.4607(5) 0.3088(2) 0.2475(3) 1.08(4) 1.
Ge3 Ge4+ 4 a 0.5376(5) 0.5879(2) 0.0341(3) 0.98(4) 1.
Ge4 Ge4+ 4 a 0.5401(5) 0.5962(2) 0.4716(3) 1.05(4) 1.
Ge5 Ge4+ 4 a 0.0364(4) 0.1928(2) 0.7490(3) 0.97(4) 1.
Ge6 Ge4+ 4 a 0.9674(5) 0.9073(2) 0.9664(3) 1.00(4) 1.
Ge7 Ge4+ 4 a 0.9666(5) 0.9076(2) 0.5296(3) 0.94(4) 1.
O1 O2- 4 a 0.2492(7) 0.2644(3) 0.2244(4) 1.13(6) 1.
O2 O2- 4 a 0.5144(7) 0.3340(3) 0.4185(5) 1.27(6) 1.
O3 O2- 4 a 0.4502(7) 0.4010(3) 0.1648(4) 1.09(6) 1.
O4 O2- 4 a 0.4716(7) 0.4991(3) 0.4295(4) 1.16(6) 1.
O5 O2- 4 a 0.3911(7) 0.5826(3) 0.1706(4) 1.13(6) 1.
O6 O2- 4 a 0.7541(8) 0.5920(3) 0.1039(5) 1.30(6) 1.
O7 O2- 4 a 0.3910(7) 0.6666(3) 0.4099(4) 1.20(6) 1.
O8 O2- 4 a 0.3844(7) 0.7458(3) 0.1694(4) 1.10(6) 1.
O9 O2- 4 a 0.9449(7) 0.1569(3) 0.5936(5) 1.19(6) 1.
O10 O2- 4 a 0.0721(7) 0.1098(3) 0.8493(4) 1.15(6) 1.
O11 O2- 4 a 0.0737(7) 0.0007(3) 0.5514(5) 1.24(6) 1.
O12 O2- 4 a 0.1123(7) 0.9208(3) 0.8282(4) 1.14(6) 1.
O13 O2- 4 a 0.7535(7) 0.8767(3) 0.9128(5) 1.26(6) 1.
O14 O2- 4 a 0.1036(7) 0.8323(3) 0.5925(4) 1.10(6) 1.
O15 O2- 4 a 0.1007(7) 0.7594(3) 0.8342(4) 1.09(6) 1.
Li1 Li1+ 4 a 0.2430(26) 0.7551(11) 0.0063(16) 1.6(2) 1.
Li2 Li1+ 4 a 0.2642(24) 0.4901(8) 0.2521(19) 1.7(2) 1.
#End of TTdata_174101-ICSD