
#(C) 2020 by FIZ Karlsruhe - Leibniz Institute for Information Infrastructure.  All rights reserved.
data_174336-ICSD
_database_code_ICSD 174336
_audit_creation_date 2010-08-01
_audit_update_record 2012-02-01
_chemical_name_common 'Potassium magnesium borate'
_chemical_formula_structural 'K Mg (B O3)'
_chemical_formula_sum 'B1 K1 Mg1 O3'
_chemical_name_structure_type KMgBO3
_exptl_crystal_density_diffrn 2.54
_diffrn_ambient_temperature 295.
_citation_title

;
Structure determination and relative properties of novel chiral orthoborate K
Mg B O3
;
loop_
_citation_id
_citation_journal_full
_citation_year
_citation_journal_volume
_citation_page_first
_citation_page_last
_citation_journal_id_ASTM
primary 'Inorganic Chemistry' 2010 49 2715 2720 INOCAJ
loop_
_citation_author_citation_id
_citation_author_name
primary 'Wu, L.'
primary 'Sun, J.C.'
primary 'Zhang, Y.'
primary 'Jin, S.-F.'
primary 'Kong, Y.-F.'
primary 'Xu, J.-J.'
_cell_length_a 6.83443(4)
_cell_length_b 6.83443(4)
_cell_length_c 6.83443(4)
_cell_angle_alpha 90.
_cell_angle_beta 90.
_cell_angle_gamma 90.
_cell_volume 319.23
_cell_formula_units_Z 4
_space_group_name_H-M_alt 'P 21 3'
_space_group_IT_number 198
loop_
_space_group_symop_id
_space_group_symop_operation_xyz
1 '-z+1/2, -x, y+1/2'
2 '-y+1/2, -z, x+1/2'
3 '-x+1/2, -y, z+1/2'
4 '-z, x+1/2, -y+1/2'
5 '-y, z+1/2, -x+1/2'
6 '-x, y+1/2, -z+1/2'
7 'z+1/2, -x+1/2, -y'
8 'y+1/2, -z+1/2, -x'
9 'x+1/2, -y+1/2, -z'
10 'z, x, y'
11 'y, z, x'
12 'x, y, z'
loop_
_atom_type_symbol
_atom_type_oxidation_number
Mg2+ 2
K1+ 1
O2- -2
B3+ 3
loop_
_atom_site_label
_atom_site_type_symbol
_atom_site_symmetry_multiplicity
_atom_site_Wyckoff_symbol
_atom_site_fract_x
_atom_site_fract_y
_atom_site_fract_z
_atom_site_U_iso_or_equiv
_atom_site_occupancy
Mg1 Mg2+ 4 a .8542(2) .8542(2) .8542(2) .0072(1) 1
K1 K1+ 4 a .1344(1) .1344(1) .1344(1) .01454(7) 1
O1 O2- 12 b .4153(1) .2576(1) .5376(1) .0105(1) 1
B1 B3+ 4 a .4002(1) .4002(1) .4002(1) .0301(5) 1
#End of TTdata_174336-ICSD