
#(C) 2020 by FIZ Karlsruhe - Leibniz Institute for Information Infrastructure.  All rights reserved.
data_18001-ICSD
_database_code_ICSD 18001
_audit_creation_date 1980-01-01
_audit_update_record 2010-02-01
_chemical_name_common 'Dicalcium bromononaoxopentaborate'
_chemical_formula_structural 'Ca2 (B5 O9 Br)'
_chemical_formula_sum 'B5 Br1 Ca2 O9'
_chemical_name_structure_type Ca2B5O9Br
_exptl_crystal_density_diffrn 2.95
_citation_title 'Structure cristalline du bromoborate Ca2 B5 O9 Br'
loop_
_citation_id
_citation_journal_full
_citation_year
_citation_journal_volume
_citation_page_first
_citation_page_last
_citation_journal_id_ASTM
primary 'Journal of Solid State Chemistry' 1973 6 179 186 JSSCBI
loop_
_citation_author_citation_id
_citation_author_name
primary 'Lloyd, D.J.'
primary 'Levasseur, A.'
primary 'Fouassier, C.'
_cell_length_a 11.397(2)
_cell_length_b 11.255(2)
_cell_length_c 6.293(1)
_cell_angle_alpha 90.
_cell_angle_beta 90.
_cell_angle_gamma 90.
_cell_volume 807.22
_cell_formula_units_Z 4
_space_group_name_H-M_alt 'P n n 2'
_space_group_IT_number 34
loop_
_space_group_symop_id
_space_group_symop_operation_xyz
1 'x+1/2, -y+1/2, z+1/2'
2 '-x+1/2, y+1/2, z+1/2'
3 '-x, -y, z'
4 'x, y, z'
loop_
_atom_type_symbol
_atom_type_oxidation_number
Ca2+ 2
Br1- -1
B3+ 3
O2- -2
loop_
_atom_site_label
_atom_site_type_symbol
_atom_site_symmetry_multiplicity
_atom_site_Wyckoff_symbol
_atom_site_fract_x
_atom_site_fract_y
_atom_site_fract_z
_atom_site_B_iso_or_equiv
_atom_site_occupancy
Ca1 Ca2+ 4 c 0.0334(1) 0.2551(2) 0.0399(5) . 1.
Ca2 Ca2+ 4 c 0.2527(2) 0.4615(1) 0.7061(5) . 1.
Br1 Br1- 2 a 0 0 0.1215(4) . 1.
Br2 Br1- 2 b 0.5 0 0.3570(4) . 1.
B1 B3+ 4 c 0.4725(7) 0.2473(13) 0.9986(26) 0.57 1.
B2 B3+ 4 c 0.1937(10) 0.2207(10) 0.5446(24) 0.65 1.
B3 B3+ 4 c 0.2747(9) 0.1785(11) 0.9004(25) 0.87 1.
B4 B3+ 4 c 0.3072(9) 0.2908(10) 0.2291(25) 0.55 1.
B5 B3+ 4 c 0.2359(8) 0.0137(9) 0.6656(21) 0.38 1.
O1 O2- 4 c 0.2490(5) 0.1911(5) 0.1236(13) 0.47 1.
O2 O2- 4 c 0.4358(6) 0.2813(6) 0.2006(14) 0.99 1.
O3 O2- 4 c 0.0871(5) 0.2566(6) 0.4317(12) 0.73 1.
O4 O2- 4 c 0.2896(5) 0.2947(6) 0.4551(13) 0.59 1.
O5 O2- 4 c 0.2148(5) 0.0927(5) 0.5064(14) 0.59 1.
O6 O2- 4 c 0.1865(5) 0.2451(6) 0.7719(13) 0.55 1.
O7 O2- 4 c 0.3937(5) 0.2171(5) 0.8457(14) 0.54 1.
O8 O2- 4 c 0.2647(5) 0.0501(5) 0.8651(15) 0.92 1.
O9 O2- 4 c 0.2654(5) 0.3965(5) 0.1066(13) 0.98 1.
#End of TTdata_18001-ICSD