
#(C) 2020 by FIZ Karlsruhe - Leibniz Institute for Information Infrastructure.  All rights reserved.
data_181518-ICSD
_database_code_ICSD 181518
_audit_creation_date 2012-02-01
_audit_update_record 2012-08-01
_chemical_name_common 'Trisilver antimony trisulfide'
_chemical_formula_structural 'Ag3 Sb S3'
_chemical_formula_sum 'Ag3 S3 Sb1'
_chemical_name_structure_type Proustite#Ag3AsS3
_exptl_crystal_density_diffrn 5.85
_diffrn_ambient_temperature 295.
_citation_title

;
The role of silver in the crystal structure of pyrargirite: single crystal
X-ray diffraction study
;
loop_
_citation_id
_citation_journal_full
_citation_year
_citation_journal_volume
_citation_page_first
_citation_page_last
_citation_journal_id_ASTM
primary 'Journal of Geosciences' 2010 55 161 167 JGOEBM
loop_
_citation_author_citation_id
_citation_author_name
primary 'Laufek, F.'
primary 'Sejkora, J.'
primary 'Dusek, M.'
_cell_length_a 11.0464(3)
_cell_length_b 11.0464(3)
_cell_length_c 8.7211(2)
_cell_angle_alpha 90.
_cell_angle_beta 90.
_cell_angle_gamma 120.
_cell_volume 921.6
_cell_formula_units_Z 6
_space_group_name_H-M_alt 'R 3 c H'
_space_group_IT_number 161
loop_
_space_group_symop_id
_space_group_symop_operation_xyz
1 '-x+y, y, z+1/2'
2 'x, x-y, z+1/2'
3 '-y, -x, z+1/2'
4 '-x+y, -x, z'
5 '-y, x-y, z'
6 'x, y, z'
7 '-x+y+2/3, y+1/3, z+5/6'
8 'x+2/3, x-y+1/3, z+5/6'
9 '-y+2/3, -x+1/3, z+5/6'
10 '-x+y+2/3, -x+1/3, z+1/3'
11 '-y+2/3, x-y+1/3, z+1/3'
12 'x+2/3, y+1/3, z+1/3'
13 '-x+y+1/3, y+2/3, z+1/6'
14 'x+1/3, x-y+2/3, z+1/6'
15 '-y+1/3, -x+2/3, z+1/6'
16 '-x+y+1/3, -x+2/3, z+2/3'
17 '-y+1/3, x-y+2/3, z+2/3'
18 'x+1/3, y+2/3, z+2/3'
loop_
_atom_type_symbol
_atom_type_oxidation_number
Sb3+ 3
Ag1+ 1
S2- -2
loop_
_atom_site_label
_atom_site_type_symbol
_atom_site_symmetry_multiplicity
_atom_site_Wyckoff_symbol
_atom_site_fract_x
_atom_site_fract_y
_atom_site_fract_z
_atom_site_U_iso_or_equiv
_atom_site_occupancy
Sb1 Sb3+ 6 a 0 0 0 0.0197(1) 1.
Ag1 Ag1+ 18 b 0.2469(3) 0.3031(2) 0.2184(4) 0.0727(3) 1.
S1 S2- 18 b 0.2215(4) 0.1007(4) 0.3609(5) 0.0233(4) 1.
loop_
_atom_site_aniso_label
_atom_site_aniso_type_symbol
_atom_site_aniso_U_11
_atom_site_aniso_U_22
_atom_site_aniso_U_33
_atom_site_aniso_U_12
_atom_site_aniso_U_13
_atom_site_aniso_U_23
Sb1 Sb3+ 0.0207(2) 0.0207(2) 0.0178(2) 0.0103(1) 0. 0.
Ag1 Ag1+ 0.0986(4) 0.0520(3) 0.0677(3) 0.0378(3) 0.0020(3) 0.0310(3)
S1 S2- 0.0188(5) 0.0213(4) 0.0281(5) 0.0089(3) 0.0016(4) 0.0010(3)
#End of TTdata_181518-ICSD