
#(C) 2020 by FIZ Karlsruhe - Leibniz Institute for Information Infrastructure.  All rights reserved.
data_18211-ICSD
_database_code_ICSD 18211
_audit_creation_date 1980-01-01
_audit_update_record 2007-08-01
_chemical_name_common 'Potassium closo-pentaborate tetrahydrate'
_chemical_formula_structural 'K (B5 O8) (H2 O)4'
_chemical_formula_sum 'H8 B5 K1 O12'
_chemical_name_structure_type KB5O8(H2O)4
_exptl_crystal_density_diffrn 1.74
_citation_title
'Refinement of the structure of potassium pentaborate tetrahydrate'
loop_
_citation_id
_citation_journal_full
_citation_year
_citation_journal_volume
_citation_page_first
_citation_page_last
_citation_journal_id_ASTM
primary 'Acta Crystallographica' 1963 16 376 379 ACCRA9
loop_
_citation_author_citation_id
_citation_author_name
primary 'Zachariasen, W.H.'
primary 'Plettinger, H.A.'
_cell_length_a 11.062(3)
_cell_length_b 11.175(3)
_cell_length_c 9.041(3)
_cell_angle_alpha 90.
_cell_angle_beta 90.
_cell_angle_gamma 90.
_cell_volume 1117.63
_cell_formula_units_Z 4
_space_group_name_H-M_alt 'A b a 2'
_space_group_IT_number 41
loop_
_space_group_symop_id
_space_group_symop_operation_xyz
1 'x+1/2, -y+1/2, z'
2 '-x+1/2, y+1/2, z'
3 '-x, -y, z'
4 'x, y, z'
5 'x+1/2, -y, z+1/2'
6 '-x+1/2, y, z+1/2'
7 '-x, -y+1/2, z+1/2'
8 'x, y+1/2, z+1/2'
loop_
_atom_type_symbol
_atom_type_oxidation_number
K1+ 1
B3+ 3
O2- -2
H1+ 1
loop_
_atom_site_label
_atom_site_type_symbol
_atom_site_symmetry_multiplicity
_atom_site_Wyckoff_symbol
_atom_site_fract_x
_atom_site_fract_y
_atom_site_fract_z
_atom_site_B_iso_or_equiv
_atom_site_occupancy
K1 K1+ 4 a 0 0 0 . 1.
B1 B3+ 4 a 0 0 0.4041(11) . 1.
B2 B3+ 8 b 0.1890(4) 0.0943(5) 0.3126(8) . 1.
B3 B3+ 8 b 0.2042(4) 0.9432(5) 0.4952(11) . 1.
O1 O2- 8 b 0.0672(2) 0.0843(3) 0.3082(5) . 1.
O2 O2- 8 b 0.0832(2) 0.9313(3) 0.4991(6) . 1.
O3 O2- 8 b 0.2591(2) 0.0254(3) 0.4033(3) . 1.
O4 O2- 8 b 0.2448(3) 0.1753(3) 0.2235(6) . 1.
O5 O2- 8 b 0.2816(2) 0.8801(4) 0.5802(6) . 1.
O6 O2- 8 b 0.0151(3) 0.1707(4) 0.7588(5) . 1.
H1 H1+ 8 b 0.965 0.208 0.682 5.9 1.
H2 H1+ 8 b 0.965 0.125 0.828 5.9 1.
H3 H1+ 8 b 0.161(5) 0.159(7) 0.741(9) 5.9 1.
H4 H1+ 8 b 0.251(7) 0.316(7) 0.193(14) 5.9 1.
#End of TTdata_18211-ICSD