
#(C) 2020 by FIZ Karlsruhe - Leibniz Institute for Information Infrastructure.  All rights reserved.
data_183637-ICSD
_database_code_ICSD 183637
_audit_creation_date 2012-08-01
_chemical_name_common 'Tetralead oxide diborate'
_chemical_formula_structural 'Pb4 O (B O3)2'
_chemical_formula_sum 'B2 O7 Pb4'
_exptl_crystal_density_diffrn 7.7
_diffrn_ambient_temperature 296.
_citation_title

;
A new congruent-melting oxyborate, Pb4 O (B O3)2 with optimally aligned B O3
triangles adopting layered-type arrangement
;
loop_
_citation_id
_citation_journal_full
_citation_year
_citation_journal_volume
_citation_page_first
_citation_page_last
_citation_journal_id_ASTM
primary 'Journal of Materials Chemistry' 2012 22 2105 2110 JMACEP
loop_
_citation_author_citation_id
_citation_author_name
primary 'Yu, Hong Wei'
primary 'Pan, Shi Lie'
primary 'Wu, Hong Ping'
primary 'Zhao, Wen Wu'
primary 'Zhang, Fang Fang'
primary 'Li, Hong Yi'
primary 'Yang, Zhi Hua'
_cell_length_a 15.4598(16)
_cell_length_b 10.8050(11)
_cell_length_c 9.9452(11)
_cell_angle_alpha 90.
_cell_angle_beta 90.
_cell_angle_gamma 90.
_cell_volume 1661.28
_cell_formula_units_Z 8
_space_group_name_H-M_alt 'A b a 2'
_space_group_IT_number 41
loop_
_space_group_symop_id
_space_group_symop_operation_xyz
1 'x+1/2, -y+1/2, z'
2 '-x+1/2, y+1/2, z'
3 '-x, -y, z'
4 'x, y, z'
5 'x+1/2, -y, z+1/2'
6 '-x+1/2, y, z+1/2'
7 '-x, -y+1/2, z+1/2'
8 'x, y+1/2, z+1/2'
loop_
_atom_type_symbol
_atom_type_oxidation_number
Pb2+ 2
B3+ 3
O2- -2
loop_
_atom_site_label
_atom_site_type_symbol
_atom_site_symmetry_multiplicity
_atom_site_Wyckoff_symbol
_atom_site_fract_x
_atom_site_fract_y
_atom_site_fract_z
_atom_site_U_iso_or_equiv
_atom_site_occupancy
Pb1 Pb2+ 8 b 0.38215(3) 1.04924(4) 0.22669(4) 0.01570(16) 1
Pb2 Pb2+ 8 b 0.37724(3) 0.69620(4) 0.22039(4) 0.01395(16) 1
Pb3 Pb2+ 8 b 0.19947(4) 0.87341(4) 0.38993(6) 0.01351(16) 1
Pb4 Pb2+ 8 b 0.41790(4) 0.87573(4) 0.52989(7) 0.01624(17) 1
B1 B3+ 8 b 0.2547(12) 0.6207(11) 0.492(2) 0.012(4) 1
B2 B3+ 8 b 0.5065(12) 0.6103(13) 0.4858(19) 0.016(4) 1
O1 O2- 8 b 0.2583(8) 0.6207(6) 0.3460(12) 0.017(2) 1
O2 O2- 8 b 0.3425(7) 0.8729(7) 0.3342(12) 0.016(2) 1
O3 O2- 8 b 0.4453(8) 0.8811(8) 0.1028(13) 0.020(3) 1
O4 O2- 8 b 0.2376(7) 0.7321(9) 0.5540(12) 0.022(2) 1
O5 O2- 8 b 0.2362(7) 1.0136(9) 0.5571(11) 0.019(2) 1
O6 O2- 4 a 0.5 1. 0.4091(16) 0.029(4) 1
O7 O2- 8 b 0.4694(8) 0.7087(9) 0.4269(12) 0.033(3) 1
O8 O2- 4 a 0.5 0.5 0.4119(18) 0.024(4) 1
loop_
_atom_site_aniso_label
_atom_site_aniso_type_symbol
_atom_site_aniso_U_11
_atom_site_aniso_U_22
_atom_site_aniso_U_33
_atom_site_aniso_U_12
_atom_site_aniso_U_13
_atom_site_aniso_U_23
Pb1 Pb2+ 0.0196(3) 0.0130(3) 0.0145(3) -0.0011(2) 0.0037(3) 0.0008(2)
Pb2 Pb2+ 0.0153(3) 0.0130(3) 0.0135(3) 0.00211(19) 0.0008(3) -0.0013(2)
Pb3 Pb2+ 0.0110(3) 0.0149(3) 0.0146(3) 0.00024(18) -0.0011(2) -0.0002(2)
Pb4 Pb2+ 0.0196(4) 0.0168(3) 0.0124(3) -0.00184(19) -0.0024(2) 0.0002(2)
B1 B3+ 0.010(9) 0.014(8) 0.013(9) 0.000(6) 0.002(6) 0.004(6)
B2 B3+ 0.016(10) 0.017(8) 0.016(9) 0.004(6) 0.005(7) -0.004(7)
O1 O2- 0.022(6) 0.017(5) 0.011(6) 0.001(4) 0.009(4) 0.004(3)
O2 O2- 0.016(6) 0.017(5) 0.016(6) 0.001(4) -0.007(5) 0.002(4)
O3 O2- 0.028(7) 0.017(5) 0.015(6) 0.004(4) 0.005(5) 0.000(4)
O4 O2- 0.023(6) 0.023(5) 0.021(6) -0.003(5) 0.002(5) -0.011(5)
O5 O2- 0.028(6) 0.015(5) 0.013(6) -0.004(4) 0.005(5) 0.002(4)
O6 O2- 0.056(12) 0.023(8) 0.007(8) -0.015(8) 0. 0.
O7 O2- 0.056(9) 0.023(6) 0.022(7) 0.010(5) -0.011(6) -0.004(5)
O8 O2- 0.036(10) 0.012(7) 0.024(10) 0.004(6) 0. 0.
#End of TTdata_183637-ICSD