
#(C) 2020 by FIZ Karlsruhe - Leibniz Institute for Information Infrastructure.  All rights reserved.
data_183885-ICSD
_database_code_ICSD 183885
_audit_creation_date 2012-08-01
_audit_update_record 2013-02-01
_chemical_name_common 'Sodium calcium diberyllium diborate fluoride'
_chemical_formula_structural 'Na Ca Be2 (B O3)2 F'
_chemical_formula_sum 'B2 Be2 Ca1 F1 Na1 O6'
_exptl_crystal_density_diffrn 2.75
_diffrn_ambient_temperature 293.
_citation_title

;
Molecular engineering design to resolve the layering habit and polymorphism
problems in deep UV NLO crystals: new structures in M M' Be2 B2 O6 F (M = Na,
M' = Ca; M = K, M' = Ca, Sr)
;
loop_
_citation_id
_citation_journal_full
_citation_year
_citation_journal_volume
_citation_page_first
_citation_page_last
_citation_journal_id_ASTM
primary 'Chemistry of Materials' 2011 23 5457 5463 CMATEX
loop_
_citation_author_citation_id
_citation_author_name
primary 'Huang Hongwei'
primary 'Yao Jiyong'
primary 'Lin Zheshuai'
primary 'Wang Xiaoyang'
primary 'He Ran'
primary 'Yao Wenjiao'
primary 'Zhai Naixia'
primary 'Chen Chuangtian'
_cell_length_a 4.6232(9)
_cell_length_b 8.008(3)
_cell_length_c 14.182(3)
_cell_angle_alpha 90.
_cell_angle_beta 90.00(3)
_cell_angle_gamma 90.
_cell_volume 525.05
_cell_formula_units_Z 4
_space_group_name_H-M_alt 'C 1 c 1'
_space_group_IT_number 9
loop_
_space_group_symop_id
_space_group_symop_operation_xyz
1 'x, -y, z+1/2'
2 'x, y, z'
3 'x+1/2, -y+1/2, z+1/2'
4 'x+1/2, y+1/2, z'
loop_
_atom_type_symbol
_atom_type_oxidation_number
Ca2+ 2
Na1+ 1
Be2+ 2
B3+ 3
O2- -2
F1- -1
loop_
_atom_site_label
_atom_site_type_symbol
_atom_site_symmetry_multiplicity
_atom_site_Wyckoff_symbol
_atom_site_fract_x
_atom_site_fract_y
_atom_site_fract_z
_atom_site_U_iso_or_equiv
_atom_site_occupancy
Ca1 Ca2+ 4 a -0.1040(5) 0.00862(11) 0.1123(2) 0.0054(2) 1
Na1 Na1+ 4 a -0.1148(13) -0.0004(5) -0.1349(6) 0.0106(5) 1
Be1 Be2+ 4 a -0.093(3) -0.3415(14) -0.0248(7) 0.012(3) 1
Be2 Be2+ 4 a 0.397(2) 0.1790(13) -0.2485(7) 0.007(2) 1
B1 B3+ 4 a -0.618(2) -0.1534(9) -0.2787(6) 0.0040(17) 1
B2 B3+ 4 a -0.095(2) 0.3230(12) -0.0001(7) 0.0084(18) 1
O1 O2- 4 a 0.0232(17) -0.5231(8) -0.0037(6) 0.0152(17) 1
O2 O2- 4 a 0.1117(12) -0.2031(8) 0.0205(4) 0.0102(14) 1
O3 O2- 4 a 0.0745(11) 0.1858(7) -0.0115(4) 0.0044(11) 1
O4 O2- 4 a 0.259(2) -0.0015(6) -0.2721(7) 0.0187(19) 1
O5 O2- 4 a -0.3219(12) -0.1659(7) -0.2651(4) 0.0041(11) 1
O6 O2- 4 a -0.3001(12) 0.2175(8) -0.3023(5) 0.0132(14) 1
F1 F1- 4 a -0.0169(10) -0.3120(6) -0.1395(4) 0.0135(8) 1
loop_
_atom_site_aniso_label
_atom_site_aniso_type_symbol
_atom_site_aniso_U_11
_atom_site_aniso_U_22
_atom_site_aniso_U_33
_atom_site_aniso_U_12
_atom_site_aniso_U_13
_atom_site_aniso_U_23
Ca1 Ca2+ 0.0078(5) 0.0039(5) 0.0046(4) -0.0003(8) -0.0006(5) -0.0005(7)
Na1 Na1+ 0.0091(13) 0.0136(14) 0.0092(11) 0.0029(9) 0.0046(13) -0.0032(9)
Be1 Be2+ 0.023(6) 0.011(5) 0.002(5) 0.002(4) 0.004(5) 0.000(3)
Be2 Be2+ 0.002(4) 0.011(5) 0.008(6) -0.008(4) -0.008(4) -0.003(4)
B1 B3+ 0.002(3) 0.003(3) 0.007(5) 0.000(3) -0.001(3) -0.001(3)
B2 B3+ 0.010(4) 0.013(4) 0.002(4) 0.000(4) -0.004(3) -0.002(3)
O1 O2- 0.009(3) 0.007(3) 0.030(4) 0.006(2) 0.007(3) 0.016(3)
O2 O2- 0.010(3) 0.003(2) 0.018(3) -0.004(2) 0.010(2) -0.010(2)
O3 O2- 0.002(2) 0.005(2) 0.006(2) -0.004(2) 0.0027(19) -0.006(2)
O4 O2- 0.012(4) 0.011(3) 0.034(5) -0.002(2) -0.018(3) 0.004(2)
O5 O2- 0.006(3) 0.006(3) 0.002(2) 0.0051(18) 0.0019(19) -0.0035(17)
O6 O2- 0.012(3) 0.014(3) 0.014(3) 0.002(2) 0.004(2) 0.009(2)
F1 F1- 0.0069(19) 0.026(2) 0.0079(16) 0.0074(17) 0.0047(18) 0.0117(19)
#End of TTdata_183885-ICSD