
#(C) 2020 by FIZ Karlsruhe - Leibniz Institute for Information Infrastructure.  All rights reserved.
data_184749-ICSD
_database_code_ICSD 184749
_audit_creation_date 2012-08-01
_chemical_name_common 'Barium digallium germanium hexasulfide'
_chemical_formula_structural 'Ba Ga2 Ge S6'
_chemical_formula_sum 'Ba1 Ga2 Ge1 S6'
_chemical_name_structure_type Ba3-x(Ga,Ge)9S18
_exptl_crystal_density_diffrn 3.89
_diffrn_ambient_temperature 93.
_citation_title

;
Ba Ga2 M Q6 (M= Si,Ge ; Q= S,Se) : a new series of promising IR nonlinear
optical materials
;
loop_
_citation_id
_citation_journal_full
_citation_year
_citation_journal_volume
_citation_page_first
_citation_page_last
_citation_journal_id_ASTM
primary 'Dalton Transactions' 2012 41 5653 5661 DTARAF
loop_
_citation_author_citation_id
_citation_author_name
primary 'Yin Wenlong'
primary 'Feng Kai'
primary 'He Ran'
primary 'Mei Dajiang'
primary 'Lin Zheshuai'
primary 'Yao Jiyong'
primary 'Wu Yicheng'
_cell_length_a 9.6020(1)
_cell_length_b 9.6020(1)
_cell_length_c 8.6889(2)
_cell_angle_alpha 90.
_cell_angle_beta 90.
_cell_angle_gamma 120.
_cell_volume 693.78
_cell_formula_units_Z 3
_space_group_name_H-M_alt 'R 3 H'
_space_group_IT_number 146
loop_
_space_group_symop_id
_space_group_symop_operation_xyz
1 '-x+y, -x, z'
2 '-y, x-y, z'
3 'x, y, z'
4 '-x+y+2/3, -x+1/3, z+1/3'
5 '-y+2/3, x-y+1/3, z+1/3'
6 'x+2/3, y+1/3, z+1/3'
7 '-x+y+1/3, -x+2/3, z+2/3'
8 '-y+1/3, x-y+2/3, z+2/3'
9 'x+1/3, y+2/3, z+2/3'
loop_
_atom_type_symbol
_atom_type_oxidation_number
Ba2+ 2
Ga3+ 3
Ge4+ 4
S2- -2
loop_
_atom_site_label
_atom_site_type_symbol
_atom_site_symmetry_multiplicity
_atom_site_Wyckoff_symbol
_atom_site_fract_x
_atom_site_fract_y
_atom_site_fract_z
_atom_site_U_iso_or_equiv
_atom_site_occupancy
Ba1 Ba2+ 3 a 1. 1. 0.94546(3) 0.02815(14) 1
Ga1 Ga3+ 9 b 0.56493(5) 0.71158(5) 0.19048(3) 0.01160(11) 0.67
Ge1 Ge4+ 9 b 0.56493(5) 0.71158(5) 0.19048(3) 0.01160(11) 0.33
S1 S2- 9 b 0.58810(14) 0.72725(13) 0.93168(8) 0.01458(19) 1
S2 S2- 9 b 0.85816(10) 0.57086(11) 0.95774(12) 0.01423(18) 1
loop_
_atom_site_aniso_label
_atom_site_aniso_type_symbol
_atom_site_aniso_U_11
_atom_site_aniso_U_22
_atom_site_aniso_U_33
_atom_site_aniso_U_12
_atom_site_aniso_U_13
_atom_site_aniso_U_23
Ba1 Ba2+ 0.02894(19) 0.02894(19) 0.0266(2) 0.01447(9) 0. 0.
Ga1 Ga3+ 0.0106(2) 0.0124(2) 0.01254(17) 0.00628(19) 0.00087(14) -0.00033(16)
Ge1 Ge4+ 0.0106(2) 0.0124(2) 0.01254(17) 0.00628(19) 0.00087(14) -0.00033(16)
S1 S2- 0.0201(4) 0.0141(4) 0.0131(4) 0.0112(4) 0.0011(3) 0.0009(3)
S2 S2- 0.0121(4) 0.0137(4) 0.0171(4) 0.0066(4) -0.0017(3) -0.0038(3)
#End of TTdata_184749-ICSD