
#(C) 2020 by FIZ Karlsruhe - Leibniz Institute for Information Infrastructure.  All rights reserved.
data_184746-ICSD
_database_code_ICSD 184746
_audit_creation_date 2012-08-01
_chemical_name_common 'Barium digallium silicon hexaselenide'
_chemical_formula_structural 'Ba Ga2 Si Se6'
_chemical_formula_sum 'Ba1 Ga2 Se6 Si1'
_chemical_name_structure_type Ba3-x(Ga,Ge)9S18
_exptl_crystal_density_diffrn 4.98
_diffrn_ambient_temperature 93.
_citation_title

;
Ba Ga2 M Q6 (M= Si,Ge ; Q= S,Se) : a new series of promising IR nonlinear
optical materials
;
loop_
_citation_id
_citation_journal_full
_citation_year
_citation_journal_volume
_citation_page_first
_citation_page_last
_citation_journal_id_ASTM
primary 'Dalton Transactions' 2012 41 5653 5661 DTARAF
loop_
_citation_author_citation_id
_citation_author_name
primary 'Yin Wenlong'
primary 'Feng Kai'
primary 'He Ran'
primary 'Mei Dajiang'
primary 'Lin Zheshuai'
primary 'Yao Jiyong'
primary 'Wu Yicheng'
_cell_length_a 9.967(1)
_cell_length_b 9.967(1)
_cell_length_c 9.047(2)
_cell_angle_alpha 90.
_cell_angle_beta 90.
_cell_angle_gamma 120.
_cell_volume 778.33
_cell_formula_units_Z 3
_space_group_name_H-M_alt 'R 3 H'
_space_group_IT_number 146
loop_
_space_group_symop_id
_space_group_symop_operation_xyz
1 '-x+y, -x, z'
2 '-y, x-y, z'
3 'x, y, z'
4 '-x+y+2/3, -x+1/3, z+1/3'
5 '-y+2/3, x-y+1/3, z+1/3'
6 'x+2/3, y+1/3, z+1/3'
7 '-x+y+1/3, -x+2/3, z+2/3'
8 '-y+1/3, x-y+2/3, z+2/3'
9 'x+1/3, y+2/3, z+2/3'
loop_
_atom_type_symbol
_atom_type_oxidation_number
Ba2+ 2
Ga3+ 3
Si4+ 4
Se2- -2
loop_
_atom_site_label
_atom_site_type_symbol
_atom_site_symmetry_multiplicity
_atom_site_Wyckoff_symbol
_atom_site_fract_x
_atom_site_fract_y
_atom_site_fract_z
_atom_site_U_iso_or_equiv
_atom_site_occupancy
Ba1 Ba2+ 3 a 0.6667 0.3333 0.35080(15) 0.0194(3) 1
Ga1 Ga3+ 9 b 0.71042(17) 0.14625(16) 0.76465(16) 0.0062(3) 0.67
Si1 Si4+ 9 b 0.71042(17) 0.14625(16) 0.76465(16) 0.0062(3) 0.33
Se1 Se2- 9 b 0.23917(12) 0.04532(12) 0.32880(9) 0.0094(3) 1
Se2 Se2- 9 b 0.72935(12) 0.14090(11) 0.02328(10) 0.0106(3) 1
loop_
_atom_site_aniso_label
_atom_site_aniso_type_symbol
_atom_site_aniso_U_11
_atom_site_aniso_U_22
_atom_site_aniso_U_33
_atom_site_aniso_U_12
_atom_site_aniso_U_13
_atom_site_aniso_U_23
Ba1 Ba2+ 0.0209(4) 0.0209(4) 0.0164(5) 0.0104(2) 0. 0.
Ga1 Ga3+ 0.0058(6) 0.0060(7) 0.0069(6) 0.0031(6) 0.0008(5) 0.0018(5)
Si1 Si4+ 0.0058(6) 0.0060(7) 0.0069(6) 0.0031(6) 0.0008(5) 0.0018(5)
Se1 Se2- 0.0091(5) 0.0125(5) 0.0095(6) 0.0075(4) 0.0025(4) 0.0022(4)
Se2 Se2- 0.0094(5) 0.0069(5) 0.0116(6) 0.0012(4) -0.0015(4) 0.0000(4)
#End of TTdata_184746-ICSD