
#(C) 2020 by FIZ Karlsruhe - Leibniz Institute for Information Infrastructure.  All rights reserved.
data_184748-ICSD
_database_code_ICSD 184748
_audit_creation_date 2012-08-01
_chemical_name_common 'Barium digallium germanium hexaselenide'
_chemical_formula_structural 'Ba Ga2 Ge Se6'
_chemical_formula_sum 'Ba1 Ga2 Ge1 Se6'
_chemical_name_structure_type Ba3-x(Ga,Ge)9S18
_exptl_crystal_density_diffrn 5.2
_diffrn_ambient_temperature 93.
_citation_title

;
Ba Ga2 M Q6 (M= Si,Ge ; Q= S,Se) : a new series of promising IR nonlinear
optical materials
;
loop_
_citation_id
_citation_journal_full
_citation_year
_citation_journal_volume
_citation_page_first
_citation_page_last
_citation_journal_id_ASTM
primary 'Dalton Transactions' 2012 41 5653 5661 DTARAF
loop_
_citation_author_citation_id
_citation_author_name
primary 'Yin Wenlong'
primary 'Feng Kai'
primary 'He Ran'
primary 'Mei Dajiang'
primary 'Lin Zheshuai'
primary 'Yao Jiyong'
primary 'Wu Yicheng'
_cell_length_a 10.008(1)
_cell_length_b 10.008(1)
_cell_length_c 9.090(2)
_cell_angle_alpha 90.
_cell_angle_beta 90.
_cell_angle_gamma 120.
_cell_volume 788.48
_cell_formula_units_Z 3
_space_group_name_H-M_alt 'R 3 H'
_space_group_IT_number 146
loop_
_space_group_symop_id
_space_group_symop_operation_xyz
1 '-x+y, -x, z'
2 '-y, x-y, z'
3 'x, y, z'
4 '-x+y+2/3, -x+1/3, z+1/3'
5 '-y+2/3, x-y+1/3, z+1/3'
6 'x+2/3, y+1/3, z+1/3'
7 '-x+y+1/3, -x+2/3, z+2/3'
8 '-y+1/3, x-y+2/3, z+2/3'
9 'x+1/3, y+2/3, z+2/3'
loop_
_atom_type_symbol
_atom_type_oxidation_number
Ba2+ 2
Ga3+ 3
Ge4+ 4
Se2- -2
loop_
_atom_site_label
_atom_site_type_symbol
_atom_site_symmetry_multiplicity
_atom_site_Wyckoff_symbol
_atom_site_fract_x
_atom_site_fract_y
_atom_site_fract_z
_atom_site_U_iso_or_equiv
_atom_site_occupancy
Ba1 Ba2+ 3 a 1. 1. 0.99987(11) 0.01975(19) 1
Ga1 Ga3+ 9 b 0.95593(8) 0.76799(8) 0.58714(8) 0.00571(15) 0.67
Ge1 Ge4+ 9 b 0.95593(8) 0.76799(8) 0.58714(8) 0.00571(15) 0.33
Se1 Se2- 9 b 0.75942(8) 0.80535(8) 0.69207(6) 0.00671(15) 1
Se2 Se2- 9 b 0.58915(8) 0.85665(7) 0.99271(6) 0.00729(15) 1
loop_
_atom_site_aniso_label
_atom_site_aniso_type_symbol
_atom_site_aniso_U_11
_atom_site_aniso_U_22
_atom_site_aniso_U_33
_atom_site_aniso_U_12
_atom_site_aniso_U_13
_atom_site_aniso_U_23
Ba1 Ba2+ 0.0211(3) 0.0211(3) 0.0170(4) 0.01056(14) 0. 0.
Ga1 Ga3+ 0.0070(4) 0.0061(3) 0.0045(3) 0.0036(3) 0.0003(3) -0.0006(3)
Ge1 Ge4+ 0.0070(4) 0.0061(3) 0.0045(3) 0.0036(3) 0.0003(3) -0.0006(3)
Se1 Se2- 0.0077(3) 0.0055(3) 0.0067(3) 0.0032(3) 0.0026(3) 0.0012(3)
Se2 Se2- 0.0113(3) 0.0062(3) 0.0054(3) 0.0051(3) 0.0015(2) 0.0002(2)
#End of TTdata_184748-ICSD