
#(C) 2020 by FIZ Karlsruhe - Leibniz Institute for Information Infrastructure.  All rights reserved.
data_185598-ICSD
_database_code_ICSD 185598
_audit_creation_date 2013-02-01
_chemical_name_common 'Zinc iodate(V) hydroxide'
_chemical_formula_structural 'Zn (I O3) (O H)'
_chemical_formula_sum 'H1 I1 O4 Zn1'
_exptl_crystal_density_diffrn 5.14
_diffrn_ambient_temperature 200.
_citation_title

;
Zn I O3 (O H) : a new layered noncentrosymmetric polar iodate _ hydrothermal
synthesis, crystal structure and second-harmonic generating (SHG)
;
loop_
_citation_id
_citation_journal_full
_citation_year
_citation_journal_volume
_citation_page_first
_citation_page_last
_citation_journal_id_ASTM
primary 'Dalton Transactions' 2012 41 8348 8353 DTARAF
loop_
_citation_author_citation_id
_citation_author_name
primary 'Lee Dong Woo'
primary 'Kim Saet Byeol'
primary 'Ok Kang Min'
_cell_length_a 4.67670(10)
_cell_length_b 11.2392(4)
_cell_length_c 6.3308(2)
_cell_angle_alpha 90
_cell_angle_beta 90.019(2)
_cell_angle_gamma 90
_cell_volume 332.76
_cell_formula_units_Z 4
_space_group_name_H-M_alt 'C 1 c 1'
_space_group_IT_number 9
loop_
_space_group_symop_id
_space_group_symop_operation_xyz
1 'x, -y, z+1/2'
2 'x, y, z'
3 'x+1/2, -y+1/2, z+1/2'
4 'x+1/2, y+1/2, z'
loop_
_atom_type_symbol
_atom_type_oxidation_number
I5+ 5
Zn2+ 2
O2- -2
H1+ 1
loop_
_atom_site_label
_atom_site_type_symbol
_atom_site_symmetry_multiplicity
_atom_site_Wyckoff_symbol
_atom_site_fract_x
_atom_site_fract_y
_atom_site_fract_z
_atom_site_U_iso_or_equiv
_atom_site_occupancy
I1 I5+ 4 a 0.4659 0.30504(4) 0.3551 0.0066(2) 1
Zn1 Zn2+ 4 a -0.0347(9) 0.4988(3) 0.1038(5) 0.0097(3) 1
O1 O2- 4 a 0.258(2) 0.4434(8) 0.3545(13) 0.0163(19) 1
O2 O2- 4 a 0.698(2) 0.3436(9) 0.5699(13) 0.019(2) 1
O3 O2- 4 a 0.234(2) 0.3413(8) 0.5715(14) 0.0171(19) 1
O4 O2- 4 a -0.204(2) 0.4121(8) -0.1468(13) 0.0140(17) 1
H1 H1+ 4 a -0.30(3) 0.335(13) -0.14(2) 0.00(3) 1
loop_
_atom_site_aniso_label
_atom_site_aniso_type_symbol
_atom_site_aniso_U_11
_atom_site_aniso_U_22
_atom_site_aniso_U_33
_atom_site_aniso_U_12
_atom_site_aniso_U_13
_atom_site_aniso_U_23
I1 I5+ 0.0074(4) 0.0055(3) 0.0070(3) -0.0011(6) 0.00006(19) 0.0003(4)
Zn1 Zn2+ 0.0128(6) 0.0082(5) 0.0082(4) -0.0005(3) -0.0004(4) -0.0013(3)
O1 O2- 0.012(4) 0.019(5) 0.018(4) 0.003(4) 0.001(3) -0.002(3)
O2 O2- 0.028(6) 0.018(5) 0.010(3) -0.004(4) -0.009(4) 0.002(3)
O3 O2- 0.022(5) 0.015(4) 0.015(4) 0.001(4) 0.007(4) -0.001(3)
O4 O2- 0.016(5) 0.013(4) 0.013(4) 0.004(3) -0.004(3) 0.002(3)
#End of TTdata_185598-ICSD