
#(C) 2020 by FIZ Karlsruhe - Leibniz Institute for Information Infrastructure.  All rights reserved.
data_185674-ICSD
_database_code_ICSD 185674
_audit_creation_date 2013-02-01
_chemical_name_common 'Strontium tetraborate'
_chemical_formula_structural 'Sr (B4 O7)'
_chemical_formula_sum 'B4 O7 Sr1'
_chemical_name_structure_type SrB4O7
_exptl_crystal_density_diffrn 4.
_diffrn_ambient_temperature 298.
_citation_title
'Structural investigations of the tetraborates M B4 O7 (M = Pb, Sr, Ba)'
loop_
_citation_id
_citation_journal_full
_citation_year
_citation_journal_volume
_citation_page_first
_citation_page_last
_citation_journal_id_ASTM
primary 'European Physical Journal B: condensed Matter and Complex Systems' 2012
85 1 5 EPJBFY
loop_
_citation_author_citation_id
_citation_author_name
primary 'Stein, W.D.'
primary 'Liebertz, J.'
primary 'Becker, P.'
primary 'Bohaty, L.'
primary 'Braden, M.'
_cell_length_a 10.7237(4)
_cell_length_b 4.4351(2)
_cell_length_c 4.2410(2)
_cell_angle_alpha 90
_cell_angle_beta 90
_cell_angle_gamma 90
_cell_volume 201.7
_cell_formula_units_Z 2
_space_group_name_H-M_alt 'P m n 21'
_space_group_IT_number 31
loop_
_space_group_symop_id
_space_group_symop_operation_xyz
1 'x+1/2, -y, z+1/2'
2 '-x+1/2, -y, z+1/2'
3 '-x, y, z'
4 'x, y, z'
loop_
_atom_type_symbol
_atom_type_oxidation_number
Sr2+ 2
O2- -2
B3+ 3
loop_
_atom_site_label
_atom_site_type_symbol
_atom_site_symmetry_multiplicity
_atom_site_Wyckoff_symbol
_atom_site_fract_x
_atom_site_fract_y
_atom_site_fract_z
_atom_site_U_iso_or_equiv
_atom_site_occupancy
Sr1 Sr2+ 2 a 0 0.288164(17) 0 0.00652(2) 1
O1 O2- 2 a 0 0.72570(14) 0.57550(18) 0.00506(19) 1
O2 O2- 4 b 0.35922(5) 0.85654(10) 0.04155(14) 0.00455(13) 1
O3 O2- 4 b 0.36472(6) 0.22597(10) 0.63218(13) 0.00494(14) 1
O4 O2- 4 b 0.22246(5) 0.63266(11) 0.63679(13) 0.00403(13) 1
B1 B3+ 4 b 0.37850(8) 0.17442(15) 0.9694(3) 0.0050(2) 1
B2 B3+ 4 b 0.24887(7) 0.67888(14) 0.9947(4) 0.00480(16) 1
loop_
_atom_site_aniso_label
_atom_site_aniso_type_symbol
_atom_site_aniso_U_11
_atom_site_aniso_U_22
_atom_site_aniso_U_33
_atom_site_aniso_U_12
_atom_site_aniso_U_13
_atom_site_aniso_U_23
Sr1 Sr2+ 0.00648(4) 0.00735(4) 0.00572(4) 0 0 0.00029(7)
O1 O2- 0.0035(4) 0.0057(3) 0.0059(3) 0 0 0.0008(2)
O2 O2- 0.0048(2) 0.00367(16) 0.0052(3) -0.00062(15) -0.0003(2) 0.00060(17)
O3 O2- 0.0048(3) 0.0067(2) 0.0034(2) 0.00111(17) -0.00008(19) 0.00033(17)
O4 O2- 0.0049(3) 0.00396(19) 0.0033(2) 0.00094(18) -0.00083(19) -0.00050(16)
B1 B3+ 0.0054(3) 0.0054(3) 0.0041(5) 0.0004(2) 0.0002(3) -0.0005(3)
B2 B3+ 0.0051(4) 0.0048(2) 0.0045(3) 0.0006(2) 0.0014(5) -0.0007(4)
#End of TTdata_185674-ICSD