
#(C) 2020 by FIZ Karlsruhe - Leibniz Institute for Information Infrastructure.  All rights reserved.
data_185673-ICSD
_database_code_ICSD 185673
_audit_creation_date 2013-02-01
_chemical_name_common 'Lead tetraborate'
_chemical_formula_structural 'Pb (B4 O7)'
_chemical_formula_sum 'B4 O7 Pb1'
_chemical_name_structure_type SrB4O7
_exptl_crystal_density_diffrn 5.88
_diffrn_ambient_temperature 298.
_citation_title
'Structural investigations of the tetraborates M B4 O7 (M = Pb, Sr, Ba)'
loop_
_citation_id
_citation_journal_full
_citation_year
_citation_journal_volume
_citation_page_first
_citation_page_last
_citation_journal_id_ASTM
primary 'European Physical Journal B: condensed Matter and Complex Systems' 2012
85 1 5 EPJBFY
loop_
_citation_author_citation_id
_citation_author_name
primary 'Stein, W.D.'
primary 'Liebertz, J.'
primary 'Becker, P.'
primary 'Bohaty, L.'
primary 'Braden, M.'
_cell_length_a 10.8346(9)
_cell_length_b 4.4535(4)
_cell_length_c 4.2441(3)
_cell_angle_alpha 90
_cell_angle_beta 90
_cell_angle_gamma 90
_cell_volume 204.79
_cell_formula_units_Z 2
_space_group_name_H-M_alt 'P m n 21'
_space_group_IT_number 31
loop_
_space_group_symop_id
_space_group_symop_operation_xyz
1 'x+1/2, -y, z+1/2'
2 '-x+1/2, -y, z+1/2'
3 '-x, y, z'
4 'x, y, z'
loop_
_atom_type_symbol
_atom_type_oxidation_number
Pb2+ 2
O2- -2
B3+ 3
loop_
_atom_site_label
_atom_site_type_symbol
_atom_site_symmetry_multiplicity
_atom_site_Wyckoff_symbol
_atom_site_fract_x
_atom_site_fract_y
_atom_site_fract_z
_atom_site_U_iso_or_equiv
_atom_site_occupancy
Pb1 Pb2+ 2 a 0 0.301653(13) 0 0.007269(13) 1
O1 O2- 2 a 0 0.7343(3) 0.6160(4) 0.00424(27) 1
O2 O2- 4 b 0.35609(10) 0.8600(2) 0.0822(3) 0.00435(18) 1
O3 O2- 4 b 0.36373(10) 0.2299(2) 0.6745(3) 0.00428(19) 1
O4 O2- 4 b 0.21995(9) 0.6291(2) 0.6799(2) 0.00350(18) 1
B1 B3+ 4 b 0.37788(11) 0.1742(2) 0.0067(9) 0.0041(2) 1
B2 B3+ 4 b 0.24834(13) 0.6770(3) 0.0345(5) 0.0043(3) 1
loop_
_atom_site_aniso_label
_atom_site_aniso_type_symbol
_atom_site_aniso_U_11
_atom_site_aniso_U_22
_atom_site_aniso_U_33
_atom_site_aniso_U_12
_atom_site_aniso_U_13
_atom_site_aniso_U_23
Pb1 Pb2+ 0.00610(2) 0.00893(2) 0.00678(2) 0 0 0.00050(6)
O1 O2- 0.0028(4) 0.0042(4) 0.0057(5) 0 0 0.0011(3)
O2 O2- 0.0043(3) 0.0027(3) 0.0061(3) -0.0009(2) -0.0009(3) 0.0005(2)
O3 O2- 0.0042(3) 0.0052(3) 0.0035(4) 0.0013(2) -0.0003(3) 0.0006(3)
O4 O2- 0.0046(3) 0.0025(3) 0.0034(3) 0.0012(2) -0.0006(3) -0.0003(2)
B1 B3+ 0.0040(3) 0.0040(3) 0.0044(4) 0.0000(3) 0.0002(8) -0.0002(7)
B2 B3+ 0.0045(4) 0.0034(4) 0.0050(9) -0.0001(3) -0.0005(4) -0.0002(4)
#End of TTdata_185673-ICSD