
#(C) 2020 by FIZ Karlsruhe - Leibniz Institute for Information Infrastructure.  All rights reserved.
data_187082-ICSD
_database_code_ICSD 187082
_audit_creation_date 2013-08-01
_chemical_name_common 'Yttrium trialuminium tetraborate'
_chemical_formula_structural 'Y Al3 (B O3)4'
_chemical_formula_sum 'Al3 B4 O12 Y1'
_chemical_name_structure_type Huntite#CaMg3(CO3)4
_exptl_crystal_density_diffrn 3.73
_citation_title
'Neutron diffraction structure study of Er and Yb doped Y Al3 (B O3)4'
loop_
_citation_id
_citation_journal_full
_citation_year
_citation_journal_volume
_citation_page_first
_citation_page_last
_citation_journal_id_ASTM
primary 'Optical Materials (Amsterdam, Netherlands)' 2012 34 1473 1476 OMATET
loop_
_citation_author_citation_id
_citation_author_name
primary 'Svab, E.'
primary 'Beregi, E.'
primary 'Fabian, M.'
primary 'Meszaros, Gy.'
_cell_length_a 9.293(2)
_cell_length_b 9.293(2)
_cell_length_c 7.236(8)
_cell_angle_alpha 90.
_cell_angle_beta 90.
_cell_angle_gamma 120.
_cell_volume 541.18
_cell_formula_units_Z 3
_space_group_name_H-M_alt 'R 3 2 H'
_space_group_IT_number 155
loop_
_space_group_symop_id
_space_group_symop_operation_xyz
1 '-x, -x+y, -z'
2 'x-y, -y, -z'
3 'y, x, -z'
4 '-x+y, -x, z'
5 '-y, x-y, z'
6 'x, y, z'
7 '-x+2/3, -x+y+1/3, -z+1/3'
8 'x-y+2/3, -y+1/3, -z+1/3'
9 'y+2/3, x+1/3, -z+1/3'
10 '-x+y+2/3, -x+1/3, z+1/3'
11 '-y+2/3, x-y+1/3, z+1/3'
12 'x+2/3, y+1/3, z+1/3'
13 '-x+1/3, -x+y+2/3, -z+2/3'
14 'x-y+1/3, -y+2/3, -z+2/3'
15 'y+1/3, x+2/3, -z+2/3'
16 '-x+y+1/3, -x+2/3, z+2/3'
17 '-y+1/3, x-y+2/3, z+2/3'
18 'x+1/3, y+2/3, z+2/3'
loop_
_atom_type_symbol
_atom_type_oxidation_number
Y3+ 3
Al3+ 3
B3+ 3
O2- -2
loop_
_atom_site_label
_atom_site_type_symbol
_atom_site_symmetry_multiplicity
_atom_site_Wyckoff_symbol
_atom_site_fract_x
_atom_site_fract_y
_atom_site_fract_z
_atom_site_B_iso_or_equiv
_atom_site_occupancy
Y1 Y3+ 3 a 0 0 0 . 1.
Al1 Al3+ 9 d 0.554(4) 0 0 . 1.
B1 B3+ 3 b 0 0 0.5 . 1.
B2 B3+ 9 e 0.454(5) 0 0.5 . 1.
O1 O2- 9 e 0.850(8) 0 0.5 . 1.
O2 O2- 9 e 0.589(7) 0 0.5 . 1.
O3 O2- 18 f 0.449(3) 0.148(9) 0.515(6) . 1.
#End of TTdata_187082-ICSD