
#(C) 2020 by FIZ Karlsruhe - Leibniz Institute for Information Infrastructure.  All rights reserved.
data_187776-ICSD
_database_code_ICSD 187776
_audit_creation_date 2013-08-01
_chemical_name_common
'Potassium calcium boron oxide hydroxide chloride hydrate (1/4/22/32/10/1/4)'
_chemical_formula_structural 'K Ca4 (B22 O32 (O H)10 Cl) (H2 O)4'
_chemical_formula_sum 'H18 B22 Ca4 Cl1 K1 O46'
_chemical_name_mineral Volkovskite
_exptl_crystal_density_diffrn 2.28
_citation_title

;
Volkovskite, a complex borate mineral: Refined crystallographic data and
optics
;
loop_
_citation_id
_citation_journal_full
_citation_year
_citation_journal_volume
_citation_page_first
_citation_page_last
_citation_journal_id_ASTM
primary 'Canadian Mineralogist' 2013 51 157 169 CAMIA6
loop_
_citation_author_citation_id
_citation_author_name
primary 'Poulin, R.S.'
primary 'Grice, J.D.'
_cell_length_a 6.539(3)
_cell_length_b 24.194(5)
_cell_length_c 6.576(3)
_cell_angle_alpha 92.2(44)
_cell_angle_beta 119.1(13)
_cell_angle_gamma 97.4(54)
_cell_volume 895.31
_cell_formula_units_Z 1
_space_group_name_H-M_alt 'P 1'
_space_group_IT_number 1
loop_
_space_group_symop_id
_space_group_symop_operation_xyz
1 'x, y, z'
loop_
_atom_type_symbol
_atom_type_oxidation_number
Ca2+ 2
K1+ 1
B3+ 3
O2- -2
Cl1- -1
H1+ 1
loop_
_atom_site_label
_atom_site_type_symbol
_atom_site_symmetry_multiplicity
_atom_site_Wyckoff_symbol
_atom_site_fract_x
_atom_site_fract_y
_atom_site_fract_z
_atom_site_U_iso_or_equiv
_atom_site_occupancy
Ca1 Ca2+ 1 a 0.8127(1) 0.1649(1) 0.6598(1) 0.0125(2) 1.
Ca2 Ca2+ 1 a 0.7163(1) 0.5816(1) 0.3900(1) 0.0121(2) 1.
Ca3 Ca2+ 1 a 0.4952(1) 0.9069(1) 0.0217(1) 0.0122(2) 1.
Ca4 Ca2+ 1 a 0.1913(1) 0.4891(1) 0.3453(1) 0.0121(2) 1.
K1 K1+ 1 a 0.0213(2) 0.0228(1) 0.0364(2) 0.0266(3) 1.
B1 B3+ 1 a 0.3001(7) 0.5993(2) 0.9027(2) 0.0095(8) 1.
B2 B3+ 1 a 0.3921(7) 0.9167(2) 0.4268(7) 0.0098(8) 1.
B3 B3+ 1 a 0.7658(7) 0.4710(2) 0.8406(7) 0.0096(8) 1.
B4 B3+ 1 a 0.3997(7) 0.1603(2) 0.1575(7) 0.0107(8) 1.
B5 B3+ 1 a 0.2369(8) 0.2648(2) 0.5598(8) 0.0146(9) 1.
B6 B3+ 1 a 0.7085(7) 0.1537(2) 0.0586(7) 0.0098(8) 1.
B7 B3+ 1 a 0.1590(8) 0.7007(2) 0.3302(8) 0.0143(9) 1.
B8 B3+ 1 a 0.5700(8) 0.3693(2) 0.1692(8) 0.0142(9) 1.
B9 B3+ 1 a 0.0792(7) 0.4800(2) 0.7489(7) 0.0086(8) 1.
B10 B3+ 1 a 0.8743(8) 0.8040(2) 0.8213(8) 0.0145(9) 1.
B11 B3+ 1 a 0.6090(7) 0.5900(2) 0.8024(7) 0.0087(8) 1.
B12 B3+ 1 a 0.8347(8) 0.2889(2) 0.7479(8) 0.0159(10) 1.
B13 B3+ 1 a 0.4549(8) 0.7819(2) 0.9840(8) 0.0159(10) 1.
B14 B3+ 1 a 0.0784(7) 0.9106(2) 0.5200(7) 0.0106(8) 1.
B15 B3+ 1 a 0.0375(7) 0.6112(2) 0.0812(7) 0.0087(8) 1.
B16 B3+ 1 a 0.9865(7) 0.8899(2) 0.1057(7) 0.0100(8) 1.
B17 B3+ 1 a 0.2203(7) 0.6126(2) 0.5060(7) 0.0088(8) 1.
B18 B3+ 1 a 0.4959(7) 0.4588(2) 0.0067(7) 0.0090(8) 1.
B19 B3+ 1 a 0.1356(7) 0.1714(2) 0.3345(7) 0.0098(8) 1.
B20 B3+ 1 a 0.3168(7) 0.1788(2) 0.7629(7) 0.0102(8) 1.
B21 B3+ 1 a 0.8098(7) 0.8975(7) 0.6853(7) 0.0097(8) 1.
B22 B3+ 1 a 0.6774(7) 0.4576(2) 0.4307(7) 0.0092(8) 1.
O1 O2- 1 a 0.1362(5) 0.1526(1) 0.5386(5) 0.0104(6) 1.
O2 O2- 1 a 0.8165(5) 0.9147(1) 0.9059(5) 0.0099(6) 1.
O3 O2- 1 a 0.0353(5) 0.9162(2) 0.7014(5) 0.0130(6) 1.
O4 O2- 1 a 0.0383(5) 0.5866(1) 0.2787(5) 0.0087(6) 1.
O5 O2- 1 a 0.9155(5) 0.4876(1) 0.5228(5) 0.0103(6) 1.
O6 O2- 1 a 0.6037(5) 0.4675(1) 0.6101(5) 0.0109(6) 1.
O7 O2- 1 a 0.1405(5) 0.6026(1) 0.6757(5) 0.0107(6) 1.
O8 O2- 1 a 0.9045(7) 0.2535(2) 0.9137(6) 0.0211(8) 1.
O9 O2- 1 a 0.8351(5) 0.5888(1) 0.8553(5) 0.0109(6) 1.
O10 O2- 1 a 0.5405(5) 0.5983(1) 0.9708(5) 0.0115(6) 1.
O11 O2- 1 a 0.3187(5) 0.9153(1) 0.5913(5) 0.0137(6) 1.
O12 O2- 1 a 0.2415(5) 0.1666(2) 0.9329(5) 0.0129(6) 1.
O13 O2- 1 a 0.0340(5) 0.6727(1) 0.1105(5) 0.0134(6) 1.
O14 O2- 1 a 0.7819(5) 0.8348(1) 0.6378(5) 0.0146(7) 1.
O15 O2- 1 a 0.5312(6) 0.8170(2) 0.1835(6) 0.0204(8) 1.
O16 O2- 1 a 0.2297(5) 0.9140(1) 0.1939(5) 0.0119(6) 1.
O17 O2- 1 a 0.7214(5) 0.4750(1) 0.0203(5) 0.0119(6) 1.
O18 O2- 1 a 0.3525(5) 0.1553(2) 0.3333(5) 0.0134(6) 1.
O19 O2- 1 a 0.2712(5) 0.6721(1) 0.5221(5) 0.0133(6) 1.
O20 O2- 1 a 0.4415(5) 0.5823(1) 0.5691(5) 0.0102(6) 1.
O21 O2- 1 a 0.6202(5) 0.9211(1) 0.4880(5) 0.0117(6) 1.
O22 O2- 1 a 0.5104(5) 0.4833(1) 0.2283(5) 0.0090(6) 1.
O23 O2- 1 a 0.0061(5) 0.4718(1) 0.9095(5) 0.0111(6) 1.
O24 O2- 1 a 0.6387(5) 0.1586(1) 0.2269(5) 0.0123(6) 1.
O25 O2- 1 a 0.9184(5) 0.9009(1) 0.2890(5) 0.0126(6) 1.
O26 O2- 1 a 0.3691(7) 0.8119(2) 0.7961(6) 0.0246(9) 1.
O27 O2- 1 a 0.2546(5) 0.5951(1) 0.0794(5) 0.0116(6) 1.
O28 O2- 1 a -0.0197(5) 0.8278(1) 0.0486(5) 0.0147(7) 1.
O29 O2- 1 a 0.5648(8) 0.3121(2) 0.1580(6) 0.0294(10) 1.
O30 O2- 1 a 0.5512(5) 0.1576(1) 0.8302(5) 0.0121(6) 1.
O31 O2- 1 a 0.9345(5) 0.1458(1) 0.1147(5) 0.0115(6) 1.
O32 O2- 1 a 0.1291(6) 0.2338(1) 0.3465(5) 0.0149(7) 1.
O33 O2- 1 a 0.3350(5) 0.2411(1) 0.7636(5) 0.0147(7) 1.
O34 O2- 1 a 0.6954(5) 0.3979(1) 0.3891(5) 0.0131(6) 1.
O35 O2- 1 a 0.8578(8) 0.7466(2) 0.7707(6) 0.0293(10) 1.
O36 O2- 1 a 0.2440(8) 0.3223(2) 0.5641(6) 0.0286(10) 1.
O37 O2- 1 a 0.3054(5) 0.4811(1) 0.8030(5) 0.0107(6) 1.
O38 O2- 1 a 0.7356(8) 0.2591(2) 0.5308(6) 0.0255(9) 1.
O39 O2- 1 a 0.7159(7) 0.6769(2) 0.3867(6) 0.0250(9) 1.
O40 O2- 1 a 0.8613(8) 0.3459(2) 0.7909(7) 0.0308(11) 1.
O41 O2- 1 a 0.1827(8) 0.7579(2) 0.3724(6) 0.0282(10) 1.
O42 O2- 1 a 0.4596(5) 0.3970(1) 0.9764(5) 0.0130(6) 1.
O43 O2- 1 a 0.7371(7) 0.0651(2) 0.6034(7) 0.0262(9) 1.
O44 O2- 1 a 0.2711(9) 0.0419(2) 0.5207(8) 0.0376(12) 1.
O45 O2- 1 a 0.4643(8) 0.7253(2) 0.9727(7) 0.0296(10) 1.
O46 O2- 1 a 0.1379(7) 0.3934(2) 0.2510(6) 0.0256(9) 1.
Cl1 Cl1- 1 a 0.5277(2) 0.0221(1) 0.0626(2) 0.0229(2) 1.
H1 H1+ 1 a 0.9981(144) 0.2606(43) 0.0832(56) 0.05 1.
H2 H1+ 1 a 0.6179(149) 0.8111(35) 0.3477(60) 0.05 1.
H3 H1+ 1 a 0.5134(169) 0.3029(46) 0.0566(187) 0.05 1.
H4 H1+ 1 a 0.3196(146) 0.7916(30) 0.6438(71) 0.05 1.
H5 H1+ 1 a 0.8925(143) 0.7265(25) 0.9048(77) 0.05 1.
H6 H1+ 1 a 0.3166(151) 0.3434(28) 0.7210(70) 0.05 1.
H7 H1+ 1 a 0.6763(151) 0.2742(26) 0.3830(69) 0.05 1.
H8 H1+ 1 a 0.7656(152) 0.7070(2) 0.5123(90) 0.05 1.
H9 H1+ 1 a 0.6427(153) 0.6932(20) 0.2396(54) 0.05 1.
H10 H1+ 1 a 0.8202(139) 0.3636(26) 0.6495(72) 0.05 1.
H11 H1+ 1 a 0.1086(152) 0.7805(21) 0.2439(82) 0.05 1.
H12 H1+ 1 a 0.5834(56) 0.0551(39) 0.5840(128) 0.05 1.
H13 H1+ 1 a 0.7618(138) 0.1047(14) 0.5966(157) 0.05 1.
H14 H1+ 1 a 0.2184(112) 0.0796(16) 0.5229(169) 0.05 1.
H15 H1+ 1 a 0.2992(160) 0.0321(45) 0.6516(185) 0.05 1.
H16 H1+ 1 a 0.3947(152) 0.7033(27) 0.8202(72) 0.05 1.
H17 H1+ 1 a 0.0589(155) 0.3763(32) 0.0905(65) 0.05 1.
H18 H1+ 1 a 0.1692(156) 0.3650(19) 0.3562(91) 0.05 1.
loop_
_atom_site_aniso_label
_atom_site_aniso_type_symbol
_atom_site_aniso_U_11
_atom_site_aniso_U_22
_atom_site_aniso_U_33
_atom_site_aniso_U_12
_atom_site_aniso_U_13
_atom_site_aniso_U_23
Ca1 Ca2+ 0.0125(3) 0.0153(3) 0.0103(3) 0.0014(3) 0.0059(2) 0.0021(2)
Ca2 Ca2+ 0.0114(3) 0.0146(3) 0.0106(3) 0.0006(2) 0.0055(2) 0.0023(2)
Ca3 Ca2+ 0.0120(3) 0.0146(3) 0.0104(3) 0.0009(2) 0.0059(2) 0.0012(2)
Ca4 Ca2+ 0.0113(3) 0.0145(3) 0.0103(3) 0.0012(2) 0.0053(2) 0.0007(2)
K1 K1+ 0.0257(4) 0.0235(5) 0.0274(4) 0.0018(4) 0.0102(4) 0.0053(4)
B1 B3+ 0.0074(13) 0.0153(17) 0.0065(13) 0.0008(13) 0.0038(11) 0.0014(12)
B2 B3+ 0.0091(13) 0.0124(17) 0.0077(14) 0.0022(13) 0.0038(11) 0.0022(12)
B3 B3+ 0.0084(13) 0.0136(17) 0.0074(13) 0.0012(13) 0.0044(11) 0.0016(12)
B4 B3+ 0.0092(13) 0.0156(18) 0.0079(13) 0.0005(13) 0.0048(11) 0.0012(13)
B5 B3+ 0.0162(16) 0.0174(19) 0.0079(15) 0.0009(15) 0.0040(13) 0.0023(14)
B6 B3+ 0.0096(13) 0.0135(17) 0.0075(13) 0.0007(13) 0.0049(11) 0.0017(12)
B7 B3+ 0.0179(16) 0.0139(18) 0.0090(15) 0.0004(15) 0.0051(13) 0.0013(14)
B8 B3+ 0.0181(16) 0.0142(18) 0.0083(15) 0.0009(15) 0.0048(13) 0.0014(14)
B9 B3+ 0.0078(13) 0.0124(17) 0.0058(13) 0.0010(13) 0.0033(10) 0.0020(12)
B10 B3+ 0.0170(16) 0.0146(18) 0.0098(15) 0.0017(15) 0.0050(13) 0.0021(14)
B11 B3+ 0.0083(13) 0.0125(16) 0.0059(13) 0.0009(13) 0.0040(10) 0.0014(12)
B12 B3+ 0.0181(10) 0.0164(19) 0.0117(16) 0.0018(15) 0.0058(13) 0.0030(14)
B13 B3+ 0.0178(10) 0.0169(19) 0.0113(16) 0.0009(15) 0.0061(13) 0.0003(14)
B14 B3+ 0.0096(14) 0.0155(18) 0.0063(14) 0.0018(14) 0.0035(11) 0.0017(13)
B15 B3+ 0.0082(13) 0.0128(17) 0.0058(13) 0.0004(12) 0.0040(10) 0.0011(12)
B16 B3+ 0.0085(14) 0.0153(18) 0.0053(13) 0.0011(13) 0.0025(11) 0.0017(13)
B17 B3+ 0.0083(13) 0.0118(16) 0.0064(13) 0.0009(13) 0.0036(11) 0.0017(12)
B18 B3+ 0.0069(13) 0.0142(17) 0.0058(13) 0.0014(13) 0.0030(11) 0.0019(12)
B19 B3+ 0.0079(13) 0.0156(18) 0.0061(13) 0.0004(13) 0.0035(11) 0.0019(12)
B20 B3+ 0.0083(13) 0.0160(18) 0.0074(14) 0.0018(13) 0.0044(11) 0.0034(13)
B21 B3+ 0.0082(13) 0.0154(18) 0.0047(13) 0.0008(13) 0.0025(11) 0.0017(12)
B22 B3+ 0.0083(13) 0.0115(16) 0.0072(13) 0.0006(13) 0.0032(11) 0.0012(12)
O1 O2- 0.0099(9) 0.0160(13) 0.0052(9) 0.0003(9) 0.0035(8) 0.0021(9)
O2 O2- 0.0096(9) 0.0152(12) 0.0048(9) 0.0026(9) 0.0034(8) 0.0015(9)
O3 O2- 0.0087(9) 0.0245(14) 0.0068(10) 0.0004(10) 0.0046(8) 0.0016(10)
O4 O2- 0.0081(9) 0.0131(12) 0.0044(9) -0.0003(9) 0.0028(7) 0.0011(8)
O5 O2- 0.0071(9) 0.0172(13) 0.0057(9) -0.0003(9) 0.0024(7) 0.0024(9)
O6 O2- 0.0081(9) 0.0188(13) 0.0055(9) 0.0010(9) 0.0033(8) 0.0012(9)
O7 O2- 0.0079(9) 0.0188(13) 0.0057(9) 0.0014(9) 0.0033(8) 0.0027(9)
O8 O2- 0.0300(15) 0.0181(14) 0.0101(12) 0.0012(13) 0.0055(11) 0.0036(11)
O9 O2- 0.0073(9) 0.0182(13) 0.0062(10) 0.0003(9) 0.0028(8) 0.0001(9)
O10 O2- 0.0076(9) 0.0204(14) 0.0067(10) 0.0010(9) 0.0039(8) 0.0008(9)
O11 O2- 0.0089(10) 0.0252(15) 0.0074(10) 0.0014(10) 0.0042(8) 0.0029(10)
O12 O2- 0.0087(9) 0.0251(15) 0.0068(10) 0.0028(10) 0.0049(8) 0.0042(10)
O13 O2- 0.0188(11) 0.0114(12) 0.0086(10) 0.0015(10) 0.0055(9) 0.0020(9)
O14 O2- 0.0205(12) 0.0141(13) 0.0072(10) 0.0015(11) 0.0052(9) 0.0008(9)
O15 O2- 0.0287(14) 0.0173(14) 0.0102(12) 0.0019(12) 0.0060(11) -0.0002(11)
O16 O2- 0.0080(9) 0.0210(14) 0.0061(10) -0.0005(10) 0.0030(8) 0.0015(9)
O17 O2- 0.0088(9) 0.0210(14) 0.0072(10) -0.0001(10) 0.0050(8) 0.0012(9)
O18 O2- 0.0087(9) 0.0263(15) 0.0075(10) 0.0030(10) 0.0053(8) 0.0042(10)
O19 O2- 0.0167(11) 0.0113(12) 0.0080(11) -0.0013(10) 0.0032(9) 0.0011(9)
O20 O2- 0.0068(9) 0.0170(13) 0.0053(10) 0.0027(9) 0.0020(8) 0.0005(9)
O21 O2- 0.0071(9) 0.0202(14) 0.0077(10) 0.0019(10) 0.0030(8) 0.0041(9)
O22 O2- 0.0091(9) 0.0132(12) 0.0048(9) 0.0027(9) 0.0035(8) 0.0015(9)
O23 O2- 0.0076(9) 0.0191(13) 0.0071(10) 0.0015(10) 0.0037(8) 0.0033(9)
O24 O2- 0.0081(10) 0.0226(14) 0.0069(10) 0.0017(10) 0.0041(6) 0.0020(10)
O25 O2- 0.0084(9) 0.0238(14) 0.0058(10) -0.0002(10) 0.0038(8) 0.0008(9)
O26 O2- 0.0400(18) 0.0156(15) 0.0109(12) 0.0023(14) 0.0069(12) 0.0009(11)
O27 O2- 0.0082(9) 0.0215(14) 0.0072(10) 0.0021(10) 0.0050(8) 0.0031(9)
O28 O2- 0.0185(12) 0.0145(13) 0.0078(11) 0.0017(11) 0.0039(9) 0.0018(10)
O29 O2- 0.0515(22) 0.0122(14) 0.0098(13) 0.00002(15) 0.0040(14) 0.0002(11)
O30 O2- 0.0088(5) 0.0213(14) 0.0069(10) 0.0030(10) 0.0040(8) 0.0031(8)
O31 O2- 0.0072(9) 0.0189(13) 0.0073(10) 0.0011(10) 0.0030(8) 0.0005(9)
O32 O2- 0.0210(12) 0.0137(13) 0.0075(10) 0.0010(11) 0.0048(9) 0.0020(9)
O33 O2- 0.0188(12) 0.0139(12) 0.0075(11) 0.0008(10) 0.0034(9) 0.0015(9)
O34 O2- 0.0168(11) 0.0114(12) 0.0074(11) 0.0024(10) 0.0029(9) 0.0012(9)
O35 O2- 0.0529(22) 0.0144(15) 0.0114(13) 0.0024(15) 0.0085(14) 0.0015(11)
O36 O2- 0.0486(21) 0.0153(15) 0.0110(13) -0.0003(15) 0.0062(14) 0.0013(11)
O37 O2- 0.0072(9) 0.0179(13) 0.0072(10) 0.0017(9) 0.0034(8) 0.0034(9)
O38 O2- 0.0425(18) 0.0159(14) 0.0104(13) 0.0017(14) 0.0068(13) 0.0028(11)
O39 O2- 0.0382(18) 0.0154(14) 0.0134(14) 0.0030(13) 0.0065(13) 0.0005(11)
O40 O2- 0.0524(22) 0.0158(16) 0.0137(14) -0.0010(16) 0.0083(14) 0.0006(12)
O41 O2- 0.0499(21) 0.0127(14) 0.0105(13) 0.0007(14) 0.0058(13) 0.0023(11)
O42 O2- 0.0178(11) 0.0119(12) 0.0071(10) -0.0004(10) 0.0044(9) 0.0008(9)
O43 O2- 0.0335(16) 0.0195(16) 0.0220(15) -0.0021(14) 0.0113(13) -0.0004(12)
O44 O2- 0.0567(24) 0.0259(19) 0.0246(17) 0.0054(19) 0.0155(17) 0.0032(15)
O45 O2- 0.0512(22) 0.0157(16) 0.0131(14) 0.0045(16) 0.0091(14) 0.0008(12)
O46 O2- 0.0393(19) 0.0145(15) 0.0139(13) -0.0021(14) 0.0059(13) 0.0024(11)
Cl1 Cl1- 0.0296(4) 0.0174(4) 0.0217(4) 0.0003(4) 0.0130(4) 0.0005(4)
#End of TTdata_187776-ICSD