
#(C) 2020 by FIZ Karlsruhe - Leibniz Institute for Information Infrastructure.  All rights reserved.
data_188639-ICSD
_database_code_ICSD 188639
_audit_creation_date 2014-02-01
_chemical_name_common
'Octasodium bis(tetrahydridoborate) hexakis(gallium germanate)'
_chemical_formula_structural '(Na8 (B H4)2) (Ga Ge O4)6'
_chemical_formula_sum 'H8 B2 Ga6 Ge6 Na8 O24'
_chemical_name_structure_type Sodalite-frame#Na8Al6Si6O24Cl2
_exptl_crystal_density_diffrn 3.17
_citation_title

;
Synthesis, crystal structure and temperature-dependent behavior of
gallogermanate tetrahydroborate sodalite (Na8 (B H4)2) (Ga Ge O4)6
;
loop_
_citation_id
_citation_journal_full
_citation_year
_citation_journal_volume
_citation_page_first
_citation_page_last
_citation_journal_id_ASTM
primary 'Microporous and Mesoporous Materials' 2013 174 54 61 MIMMFJ
loop_
_citation_author_citation_id
_citation_author_name
primary 'Poltz, Irma'
primary 'Robben, Lars'
primary 'Buhl, Josef-Christian'
primary 'Gesing, Thorsten M.'
_cell_length_a 9.12581(1)
_cell_length_b 9.12581(1)
_cell_length_c 9.12581(1)
_cell_angle_alpha 90.
_cell_angle_beta 90.
_cell_angle_gamma 90.
_cell_volume 760.
_cell_formula_units_Z 1
_space_group_name_H-M_alt 'P -4 3 n'
_space_group_IT_number 218
loop_
_space_group_symop_id
_space_group_symop_operation_xyz
1 '-z+1/2, y+1/2, -x+1/2'
2 '-y+1/2, x+1/2, -z+1/2'
3 '-x+1/2, z+1/2, -y+1/2'
4 'z+1/2, -y+1/2, -x+1/2'
5 'y+1/2, -x+1/2, -z+1/2'
6 'x+1/2, -z+1/2, -y+1/2'
7 '-z+1/2, -y+1/2, x+1/2'
8 '-y+1/2, -x+1/2, z+1/2'
9 '-x+1/2, -z+1/2, y+1/2'
10 'z+1/2, y+1/2, x+1/2'
11 'y+1/2, x+1/2, z+1/2'
12 'x+1/2, z+1/2, y+1/2'
13 '-z, -x, y'
14 '-y, -z, x'
15 '-x, -y, z'
16 'z, -x, -y'
17 'y, -z, -x'
18 'x, -y, -z'
19 '-z, x, -y'
20 '-y, z, -x'
21 '-x, y, -z'
22 'z, x, y'
23 'y, z, x'
24 'x, y, z'
loop_
_atom_type_symbol
_atom_type_oxidation_number
Na1+ 1
Ga3+ 3
Ge4+ 4
O2- -2
B3+ 3
H1- -1
loop_
_atom_site_label
_atom_site_type_symbol
_atom_site_symmetry_multiplicity
_atom_site_Wyckoff_symbol
_atom_site_fract_x
_atom_site_fract_y
_atom_site_fract_z
_atom_site_B_iso_or_equiv
_atom_site_occupancy
Na1 Na1+ 8 e 0.17116(11) 0.17116(11) 0.17116(11) 1.29(4) 1.
Ga1 Ga3+ 6 d 0.25 0 0.5 0.39(4) 1.
Ge1 Ge4+ 6 c 0.25 0.5 0 0.36(3) 1.
O1 O2- 24 i 0.13802(33) 0.14696(31) 0.42001(14) 0.47(3) 1.
B1 B3+ 2 a 0 0 0 1.92(11) 1.
H1 H1- 8 e 0.42111(61) 0.42111(61) 0.42111(61) 1.92(11) 1.
#End of TTdata_188639-ICSD