
#(C) 2020 by FIZ Karlsruhe - Leibniz Institute for Information Infrastructure.  All rights reserved.
data_189737-ICSD
_database_code_ICSD 189737
_audit_creation_date 2014-02-01
_chemical_name_common 'Mercury digallium tetrasulfide'
_chemical_formula_structural 'Hg Ga2 S4'
_chemical_formula_sum 'Ga2 Hg1 S4'
_chemical_name_structure_type Al2CdS4#Ga2CdS4
_exptl_crystal_density_diffrn 5.01
_diffrn_ambient_temperature 293.
_citation_title

;
Structural and elastic properties of defect chalcopyrite Hg Ga2 S4 under high
pressure
;
loop_
_citation_id
_citation_journal_full
_citation_year
_citation_journal_volume
_citation_page_first
_citation_page_last
_citation_journal_id_ASTM
primary 'Journal of Alloys and Compounds' 2014 583 70 78 JALCEU
loop_
_citation_author_citation_id
_citation_author_name
primary 'Gomis, O.'
primary 'Santamaria-Perez, D.'
primary 'Vilaplana, R.'
primary 'Luna, R.'
primary 'Sans, J.A.'
primary 'Manjon, F.J.'
primary 'Errandonea, D.'
primary 'Perez-Gonzalez, E.'
primary 'Rodriguez-Hernandez, P.'
primary 'Munoz, A.'
primary 'Tiginyanu, I.M.'
primary 'Ursaki, V.V.'
_cell_length_a 5.5095(3)
_cell_length_b 5.5095(3)
_cell_length_c 10.2308(6)
_cell_angle_alpha 90.
_cell_angle_beta 90.
_cell_angle_gamma 90.
_cell_volume 310.55
_cell_formula_units_Z 2
_space_group_name_H-M_alt 'I -4'
_space_group_IT_number 82
loop_
_space_group_symop_id
_space_group_symop_operation_xyz
1 '-y, x, -z'
2 'y, -x, -z'
3 '-x, -y, z'
4 'x, y, z'
5 '-y+1/2, x+1/2, -z+1/2'
6 'y+1/2, -x+1/2, -z+1/2'
7 '-x+1/2, -y+1/2, z+1/2'
8 'x+1/2, y+1/2, z+1/2'
loop_
_atom_type_symbol
_atom_type_oxidation_number
Hg2+ 2
Ga3+ 3
S2- -2
loop_
_atom_site_label
_atom_site_type_symbol
_atom_site_symmetry_multiplicity
_atom_site_Wyckoff_symbol
_atom_site_fract_x
_atom_site_fract_y
_atom_site_fract_z
_atom_site_B_iso_or_equiv
_atom_site_occupancy
Hg1 Hg2+ 2 a 0 0 0 . 1.
Ga1 Ga3+ 2 b 0 0 0.5 . 1.
Ga2 Ga3+ 2 c 0 0.5 0.25 . 1.
S1 S2- 8 g 0.272(1) 0.268(1) 0.1375(6) . 1.
#End of TTdata_189737-ICSD