
#(C) 2020 by FIZ Karlsruhe - Leibniz Institute for Information Infrastructure.  All rights reserved.
data_19014-ICSD
_database_code_ICSD 19014
_audit_creation_date 1980-01-01
_audit_update_record 2010-08-01
_chemical_name_common 'Pentalead germanate digermanate - HT'
_chemical_formula_structural 'Pb5 (Ge O4) (Ge2 O7)'
_chemical_formula_sum 'Ge3 O11 Pb5'
_chemical_name_structure_type Pb5GeO4Ge2O7
_exptl_crystal_density_diffrn 7.44
_citation_title 'Prototype structure of Pb5 Ge3 O11'
loop_
_citation_id
_citation_journal_full
_citation_year
_citation_journal_volume
_citation_page_first
_citation_page_last
_citation_journal_id_ASTM
primary 'Journal of Solid State Chemistry' 1973 6 378 383 JSSCBI
loop_
_citation_author_citation_id
_citation_author_name
primary 'Newnham, R.E.'
primary 'Wolfe, R.W.'
primary 'Darlington, C.N.W.'
_cell_length_a 10.19
_cell_length_b 10.19
_cell_length_c 10.642
_cell_angle_alpha 90.
_cell_angle_beta 90.
_cell_angle_gamma 120.
_cell_volume 956.98
_cell_formula_units_Z 3
_space_group_name_H-M_alt 'P -6'
_space_group_IT_number 174
loop_
_space_group_symop_id
_space_group_symop_operation_xyz
1 '-x+y, -x, -z'
2 '-y, x-y, -z'
3 'x, y, -z'
4 '-x+y, -x, z'
5 '-y, x-y, z'
6 'x, y, z'
loop_
_atom_type_symbol
_atom_type_oxidation_number
Pb2+ 2
Ge4+ 4
O2- -2
loop_
_atom_site_label
_atom_site_type_symbol
_atom_site_symmetry_multiplicity
_atom_site_Wyckoff_symbol
_atom_site_fract_x
_atom_site_fract_y
_atom_site_fract_z
_atom_site_B_iso_or_equiv
_atom_site_occupancy
Pb1 Pb2+ 6 l 0.2622(5) 0.2628(5) 0.1849(4) 0.8 1.
Pb2 Pb2+ 2 h 0.3333 0.6667 0.3382 -0.2 1.
Pb3 Pb2+ 2 i 0.6667 0.3333 0.325(1) 2.4 1.
Pb4 Pb2+ 1 c 0.3333 0.6667 0 1. 1.
Pb5 Pb2+ 1 e 0.6667 0.3333 0 2.2 1.
Pb6 Pb2+ 3 k 0.249(1) 0.989(1) 0.5 2.1 1.
Ge1 Ge4+ 6 l 0.015(1) 0.388(1) 0.152(1) 0.9 1.
Ge2 Ge4+ 3 k 0.395(2) 0.389(2) 0.5 0.4 1.
O1 O2- 6 l 0.074(11) 0.330(8) 0.268 3.7 1.
O2 O2- 6 l 0.074(8) 0.581(9) 0.155(8) 3.7 1.
O3 O2- 6 l 0.818(16) 0.329(11) 0.195(11) 6. 1.
O4 O2- 3 j 0.066(6) 0.347(7) 0 0.3 1.
O5 O2- 3 k 0.286(7) 0.481(8) 0.5 -0.8 1.
O6 O2- 3 k 0.584(10) 0.455(13) 0.5 2.9 1.
O7 O2- 6 l 0.302(16) 0.242(14) 0.377(8) 5.4 1.
#End of TTdata_19014-ICSD