
#(C) 2020 by FIZ Karlsruhe - Leibniz Institute for Information Infrastructure.  All rights reserved.
data_193973-ICSD
_database_code_ICSD 193973
_audit_creation_date 2015-08-01
_chemical_name_common 'Trimagnesium heptaborate chloride'
_chemical_formula_structural 'Mg3 (B7 O13 Cl)'
_chemical_formula_sum 'B7 Cl1 Mg3 O13'
_chemical_name_structure_type Boracite#Mg3B7O13Cl
_exptl_crystal_density_diffrn 2.96
_citation_title

;
A novel blue-emitting phosphor of Eu2+-activated magnesium haloborate Mg3 B7
O13 Cl
;
loop_
_citation_id
_citation_journal_full
_citation_year
_citation_journal_volume
_citation_page_first
_citation_page_last
_citation_journal_id_ASTM
primary 'Journal of the American Ceramic Society' 2015 98 594 600 JACTAW
loop_
_citation_author_citation_id
_citation_author_name
primary 'Qiao, Xuebin'
primary 'Seo, Hyo Jin'
_cell_length_a 8.5489(13)
_cell_length_b 8.5362(13)
_cell_length_c 12.0662(19)
_cell_angle_alpha 90.
_cell_angle_beta 90.
_cell_angle_gamma 90.
_cell_volume 880.53
_cell_formula_units_Z 4
_space_group_name_H-M_alt 'P c a 21'
_space_group_IT_number 29
loop_
_space_group_symop_id
_space_group_symop_operation_xyz
1 'x+1/2, -y, z'
2 '-x+1/2, y, z+1/2'
3 '-x, -y, z+1/2'
4 'x, y, z'
loop_
_atom_type_symbol
_atom_type_oxidation_number
O2- -2
Cl1- -1
O2- -2
Mg2+ 2
B3+ 3
O2- -2
Mg2+ 2
B3+ 3
O2- -2
B3+ 3
O2- -2
B3+ 3
O2- -2
Mg2+ 2
B3+ 3
loop_
_atom_site_label
_atom_site_type_symbol
_atom_site_symmetry_multiplicity
_atom_site_Wyckoff_symbol
_atom_site_fract_x
_atom_site_fract_y
_atom_site_fract_z
_atom_site_U_iso_or_equiv
_atom_site_occupancy
O1 O2- 4 a 0.8357(1) 0.0201(1) 0.1152(5) 0.0003(3) 1.
Cl1 Cl1- 4 a 0.7259(3) 0.2494(3) 0.3347(3) 0.0003(5) 1.
O2 O2- 4 a 0.5426(4) 0.1706(4) 0.0704(4) 0.0003(3) 1.
Mg1 Mg2+ 4 a 0.5150(3) 0.0283(3) 0.3452(6) 0.001(17) 1.
B1 B3+ 4 a 0.5020(6) 0.0020(2) 0.0952(5) 0.095(29) 1.
O3 O2- 4 a 0.4663(4) 0.6629(4) 0.0740(2) 0.0003(5) 1.
O4 O2- 4 a 0.4104(2) 0.4428(1) 0.1906(3) 0.0003(3) 1.
O5 O2- 4 a 0.3609(4) 0.3257(3) 0.4201(4) 0.0003(3) 1.
O6 O2- 4 a 0.3230(3) 0.1347(3) 0.2794(2) 0.0003(5) 1.
Mg2 Mg2+ 4 a 0.2583(1) 0.7512 0.1196(6) 0.011(16) 1.
B2 B3+ 4 a 0.2480(4) 0.0960(5) 0.1762(3) 0.0401(6) 1.
B3 B3+ 4 a 0.2460(5) 0.4040(1) 0.1742(1) 0.090(21) 1.
B4 B3+ 4 a 0.2440(2) 0.2510(5) 0.3482(4) 0.091(10) 1.
O7 O2- 4 a 0.2328(5) 0.2507(6) 0.1051(3) 0.0003(5) 1.
O8 O2- 4 a 0.1711(5) 0.3747(2) 0.2809(3) 0.0003(5) 1.
O9 O2- 4 a 0.1676(2) 0.5281(4) 0.1171(3) 0.0003(3) 1.
O10 O2- 4 a 0.1170(3) 0.1699(3) 0.4100(6) 0.0003(5) 1.
B5 B3+ 4 a 0.0950(2) 0.2500(7) 0.0232(4) 0.2011(4) 1.
O11 O2- 4 a 0.0894(5) 0.0394(2) 0.1946(3) 0.0003(3) 1.
O12 O2- 4 a 0.0496(2) 0.0903(1) 0.0000(2) 0.0003(5) 1.
B6 B3+ 4 a 0.0470(3) 0.2500(3) 0.4952(5) 0.090(17) 1.
O13 O2- 4 a 0.0385(7) 0.4113(4) 0.4899(4) 0.0003(5) 1.
Mg3 Mg2+ 4 a 0.0149(2) 0.5296(5) 0.3427(2) 0.037(29) 1.
B7 B3+ 4 a 0.0020(3) 0.5020(3) 0.0952(3) 0.3701(9) 1.
#End of TTdata_193973-ICSD