
#(C) 2020 by FIZ Karlsruhe - Leibniz Institute for Information Infrastructure.  All rights reserved.
data_194193-ICSD
_database_code_ICSD 194193
_audit_creation_date 2015-08-01
_chemical_name_common 'Dibismuth tellurium iodate(V) pentaoxide chloride'
_chemical_formula_structural 'Bi2 Te (I O3) O5 Cl'
_chemical_formula_sum 'Bi2 Cl1 I1 O8 Te1'
_exptl_crystal_density_diffrn 6.54
_diffrn_ambient_temperature 293.
_citation_title

;
Bi2 Te (I O3) O5 Cl: A novel polar iodate oxychloride exhibiting a
second-order nonlinear optical response
;
loop_
_citation_id
_citation_journal_full
_citation_year
_citation_journal_volume
_citation_page_first
_citation_page_last
_citation_journal_id_ASTM
primary 'Dalton Transactions' 2015 44 2469 2475 DTARAF
loop_
_citation_author_citation_id
_citation_author_name
primary 'Geng, Lei'
primary 'Meng, Changyu'
primary 'Lu, Hongyan'
primary 'Luo, Zhongzhen'
primary 'Lin, Chensheng'
primary 'Cheng, Wendan'
_cell_length_a 22.037(8)
_cell_length_b 5.2564(17)
_cell_length_c 15.142(5)
_cell_angle_alpha 90.
_cell_angle_beta 104.499(7)
_cell_angle_gamma 90.
_cell_volume 1698.11
_cell_formula_units_Z 8
_space_group_name_H-M_alt 'C 1 c 1'
_space_group_IT_number 9
loop_
_space_group_symop_id
_space_group_symop_operation_xyz
1 'x, -y, z+1/2'
2 'x, y, z'
3 'x+1/2, -y+1/2, z+1/2'
4 'x+1/2, y+1/2, z'
loop_
_atom_type_symbol
_atom_type_oxidation_number
Bi3+ 3
Te6+ 6
I5+ 5
Cl1- -1
O2- -2
loop_
_atom_site_label
_atom_site_type_symbol
_atom_site_symmetry_multiplicity
_atom_site_Wyckoff_symbol
_atom_site_fract_x
_atom_site_fract_y
_atom_site_fract_z
_atom_site_U_iso_or_equiv
_atom_site_occupancy
Bi1 Bi3+ 4 a 0.08058(3) 0.36922(16) 0.55901(5) 0.00856(18) 1
Bi2 Bi3+ 4 a 0.04582(3) 1.29696(17) 0.29313(5) 0.00884(18) 1
Bi3 Bi3+ 4 a 0.24865(3) 0.86533(16) 0.64523(5) 0.0107(2) 1
Bi4 Bi3+ 4 a 0.27835(3) 1.18906(17) 0.40543(5) 0.01056(19) 1
Te1 Te6+ 4 a 0.14087(6) 0.8175(3) 0.44043(9) 0.0058(3) 1
Te2 Te6+ 4 a 0.18242(6) 0.3186(3) 0.76746(9) 0.0047(3) 1
I1 I5+ 4 a -0.09352(6) 0.2025(2) 0.53520(10) 0.0123(3) 1
I2 I5+ 4 a -0.06385(6) 0.7494(3) 0.33394(10) 0.0135(3) 1
Cl1 Cl1- 4 a 0.3025(3) 0.4199(12) 0.6036(5) 0.0185(13) 1
Cl2 Cl1- 4 a 0.0213(3) -0.1144(12) 0.6094(4) 0.0191(14) 1
O1 O2- 4 a 0.2566(8) 0.120(3) 0.8035(12) 0.013(4) 1
O2 O2- 4 a 0.1588(7) 0.670(3) 0.5601(10) 0.008(3) 1
O3 O2- 4 a 0.1023(7) 0.481(3) 0.7193(11) 0.006(3) 1
O4 O2- 4 a 0.1688(6) 0.172(3) 0.6504(10) 0.006(3) 1
O5 O2- 4 a 0.0887(7) 1.098(3) 0.4539(11) 0.012(3) 1
O6 O2- 4 a 0.0682(7) 0.598(3) 0.4073(11) 0.009(3) 1
O7 O2- 4 a 0.2269(6) 0.614(3) 0.7514(10) 0.004(3) 1
O8 O2- 4 a 0.2154(7) 0.999(3) 0.4838(10) 0.010(3) 1
O9 O2- 4 a 0.1347(7) 0.055(3) 0.8186(10) 0.008(3) 1
O10 O2- 4 a 0.1881(7) 0.450(3) 0.8912(10) 0.007(3) 1
O11 O2- 4 a -0.1582(7) 0.432(4) 0.5046(10) 0.030(4) 1
O12 O2- 4 a -0.0346(6) 0.583(3) 0.2455(10) 0.015(3) 1
O13 O2- 4 a -0.1204(6) 0.970(3) 0.4484(9) 0.011(3) 1
O14 O2- 4 a -0.1457(6) 0.680(3) 0.2924(10) 0.015(3) 1
O15 O2- 4 a -0.0371(7) 0.364(3) 0.4873(10) 0.020(3) 1
O16 O2- 4 a -0.0550(7) 1.063(3) 0.2923(11) 0.023(4) 1
loop_
_atom_site_aniso_label
_atom_site_aniso_type_symbol
_atom_site_aniso_U_11
_atom_site_aniso_U_22
_atom_site_aniso_U_33
_atom_site_aniso_U_12
_atom_site_aniso_U_13
_atom_site_aniso_U_23
Bi1 Bi3+ 0.0061(4) 0.0081(4) 0.0114(4) 0.0003(3) 0.0022(3) -0.0005(3)
Bi2 Bi3+ 0.0069(4) 0.0075(4) 0.0121(4) -0.0015(3) 0.0022(3) 0.0007(4)
Bi3 Bi3+ 0.0085(4) 0.0095(5) 0.0144(5) -0.0006(3) 0.0037(4) -0.0003(4)
Bi4 Bi3+ 0.0082(4) 0.0075(4) 0.0148(5) -0.0009(3) 0.0008(3) 0.0001(4)
Te1 Te6+ 0.0058(6) 0.0035(7) 0.0082(7) -0.0006(5) 0.0019(5) -0.0008(6)
Te2 Te6+ 0.0035(6) 0.0031(7) 0.0074(7) -0.0003(5) 0.0010(5) -0.0003(5)
I1 I5+ 0.0058(6) 0.0077(6) 0.0212(7) 0.0012(5) -0.0006(5) 0.0009(5)
I2 I5+ 0.0059(5) 0.0116(7) 0.0230(7) -0.0001(5) 0.0035(5) 0.0044(5)
Cl1 Cl1- 0.017(3) 0.012(3) 0.028(4) 0.002(2) 0.009(2) -0.006(3)
Cl2 Cl1- 0.015(3) 0.021(3) 0.022(3) 0.009(2) 0.005(2) 0.008(2)
O1 O2- 0.015(8) 0.005(8) 0.023(9) 0.004(6) 0.009(6) 0.001(6)
O2 O2- 0.008(3) 0.008(3) 0.008(3) -0.0005(10) 0.0019(13) 0.0003(10)
O3 O2- 0.005(3) 0.006(3) 0.005(3) 0.0002(10) 0.0012(12) -0.0003(10)
O4 O2- 0.006(3) 0.006(3) 0.006(3) 0.0006(10) 0.0013(12) -0.0003(10)
O5 O2- 0.012(3) 0.012(3) 0.012(3) 0.0003(10) 0.0034(13) -0.0003(10)
O6 O2- 0.009(3) 0.009(3) 0.009(3) 0.0000(10) 0.0021(13) -0.0001(10)
O7 O2- 0.004(3) 0.004(3) 0.004(3) -0.0002(10) 0.0009(12) 0.0000(10)
O8 O2- 0.009(7) 0.010(8) 0.012(8) 0.004(6) 0.006(6) 0.007(6)
O9 O2- 0.008(3) 0.008(3) 0.008(3) -0.0005(10) 0.0021(13) -0.0002(10)
O10 O2- 0.007(3) 0.007(3) 0.007(3) -0.0005(10) 0.0019(12) -0.0001(10)
O11 O2- 0.011(7) 0.057(13) 0.022(10) 0.004(8) 0.001(7) 0.018(8)
O12 O2- 0.015(3) 0.015(3) 0.015(3) 0.0004(10) 0.0036(13) -0.0001(10)
O13 O2- 0.014(7) 0.011(8) 0.014(8) 0.000(6) 0.012(6) -0.001(6)
O14 O2- 0.015(3) 0.015(3) 0.015(3) 0.0000(10) 0.0036(12) 0.0003(10)
O15 O2- 0.020(4) 0.020(4) 0.020(4) -0.0005(10) 0.0051(13) 0.0006(10)
O16 O2- 0.023(4) 0.022(4) 0.023(4) -0.0003(10) 0.0056(14) 0.0002(10)
#End of TTdata_194193-ICSD