
#(C) 2020 by FIZ Karlsruhe - Leibniz Institute for Information Infrastructure.  All rights reserved.
data_194200-ICSD
_database_code_ICSD 194200
_audit_creation_date 2015-08-01
_chemical_name_common 'Tribarium decaoxotriphosphate chloride'
_chemical_formula_structural 'Ba3 (P3 O10) Cl'
_chemical_formula_sum 'Ba3 Cl1 O10 P3'
_exptl_crystal_density_diffrn 4.11
_diffrn_ambient_temperature 293.
_citation_title
'Deep-ultraviolet nonlinear optical crystals: Ba3 P3 O10 X (X = Cl, Br)'
loop_
_citation_id
_citation_journal_full
_citation_year
_citation_journal_volume
_citation_page_first
_citation_page_last
_citation_journal_id_ASTM
primary 'Journal of the American Chemical Society' 2014 136 480 487 JACSAT
loop_
_citation_author_citation_id
_citation_author_name
primary 'Yu, Peng'
primary 'Wu, Li-Ming'
primary 'Zhou, Liu-Jiang'
primary 'Chen, Ling'
_cell_length_a 14.2771(17)
_cell_length_b 5.5968(4)
_cell_length_c 14.1592(13)
_cell_angle_alpha 90.
_cell_angle_beta 90.
_cell_angle_gamma 90.
_cell_volume 1131.4
_cell_formula_units_Z 4
_space_group_name_H-M_alt 'P c a 21'
_space_group_IT_number 29
loop_
_space_group_symop_id
_space_group_symop_operation_xyz
1 'x+1/2, -y, z'
2 '-x+1/2, y, z+1/2'
3 '-x, -y, z+1/2'
4 'x, y, z'
loop_
_atom_type_symbol
_atom_type_oxidation_number
Ba2+ 2
Cl1- -1
P5+ 5
O2- -2
loop_
_atom_site_label
_atom_site_type_symbol
_atom_site_symmetry_multiplicity
_atom_site_Wyckoff_symbol
_atom_site_fract_x
_atom_site_fract_y
_atom_site_fract_z
_atom_site_U_iso_or_equiv
_atom_site_occupancy
Ba1 Ba2+ 4 a 0.44233(3) 0.01266(7) 0.66992(2) 0.01051(11) 1
Ba2 Ba2+ 4 a 0.70271(3) 0.00267(9) 0.45672(3) 0.01088(11) 1
Ba3 Ba2+ 4 a 0.68288(3) 0.50088(9) 0.74300(3) 0.01183(11) 1
Cl1 Cl1- 4 a 0.62053(17) 0.0037(4) 0.80874(18) 0.0238(4) 1
P1 P5+ 4 a 0.58518(14) 0.4863(4) 0.31048(12) 0.0097(4) 1
P2 P5+ 4 a 0.53486(15) 0.4966(3) 0.51842(14) 0.0096(4) 1
P3 P5+ 4 a 0.32257(13) 0.4913(4) 0.53828(12) 0.0087(4) 1
O1 O2- 4 a 0.2920(4) 0.4827(10) 0.4370(3) 0.0172(12) 1
O2 O2- 4 a 0.5508(4) 0.7533(9) 0.5400(5) 0.0174(13) 1
O3 O2- 4 a 0.5082(3) 0.4818(9) 0.2373(4) 0.0141(11) 1
O4 O2- 4 a 0.2795(4) 0.2921(9) 0.5971(4) 0.0147(13) 1
O5 O2- 4 a 0.6385(4) 0.7196(8) 0.3128(4) 0.0137(12) 1
O6 O2- 4 a 0.3159(4) 0.7352(11) 0.5820(4) 0.0163(14) 1
O7 O2- 4 a 0.6481(4) 0.2699(9) 0.3028(4) 0.0132(12) 1
O8 O2- 4 a 0.4324(3) 0.4099(9) 0.5445(4) 0.0123(12) 1
O9 O2- 4 a 0.5298(5) 0.4553(12) 0.4095(4) 0.0306(17) 1
O10 O2- 4 a 0.5980(4) 0.3203(10) 0.5649(4) 0.0199(14) 1
loop_
_atom_site_aniso_label
_atom_site_aniso_type_symbol
_atom_site_aniso_U_11
_atom_site_aniso_U_22
_atom_site_aniso_U_33
_atom_site_aniso_U_12
_atom_site_aniso_U_13
_atom_site_aniso_U_23
Ba1 Ba2+ 0.0117(3) 0.0087(2) 0.0110(2) -0.00014(19) 0.00017(18) 0.0002(4)
Ba2 Ba2+ 0.0124(2) 0.00964(18) 0.01063(18) 0.00055(19) -0.00057(19) -0.0001(2)
Ba3 Ba2+ 0.0105(3) 0.0122(2) 0.01281(19) -0.0007(2) 0.00010(18) 0.0010(2)
Cl1 Cl1- 0.0219(11) 0.0121(8) 0.0373(10) -0.0023(9) -0.0124(8) 0.0017(10)
P1 P5+ 0.0113(10) 0.0098(9) 0.0079(8) -0.0007(9) -0.0001(7) -0.0006(9)
P2 P5+ 0.0093(10) 0.0098(8) 0.0098(9) -0.0011(8) 0.0027(7) -0.0020(8)
P3 P5+ 0.0080(10) 0.0092(8) 0.0089(8) 0.0010(9) -0.0010(7) -0.0004(9)
O1 O2- 0.022(3) 0.023(3) 0.007(3) -0.004(3) -0.003(2) 0.002(3)
O2 O2- 0.021(4) 0.007(2) 0.024(3) -0.007(2) 0.010(3) -0.002(2)
O3 O2- 0.008(3) 0.014(2) 0.020(3) 0.000(2) -0.002(3) -0.003(3)
O4 O2- 0.018(3) 0.016(3) 0.010(3) -0.007(2) 0.003(3) 0.000(2)
O5 O2- 0.014(3) 0.007(2) 0.020(3) -0.002(2) 0.001(2) 0.000(2)
O6 O2- 0.017(4) 0.015(3) 0.016(3) 0.005(2) -0.001(2) -0.007(2)
O7 O2- 0.0135(15) 0.0122(14) 0.0140(15) 0.0011(9) -0.0013(10) 0.0001(9)
O8 O2- 0.004(3) 0.016(3) 0.017(3) 0.000(2) 0.001(2) 0.004(2)
O9 O2- 0.034(4) 0.045(4) 0.013(3) -0.021(3) 0.014(3) -0.006(3)
O10 O2- 0.011(3) 0.019(3) 0.029(4) 0.005(2) -0.001(3) -0.004(3)
#End of TTdata_194200-ICSD