
#(C) 2020 by FIZ Karlsruhe - Leibniz Institute for Information Infrastructure.  All rights reserved.
data_194201-ICSD
_database_code_ICSD 194201
_audit_creation_date 2015-08-01
_chemical_name_common 'Tribarium decaoxotriphosphate bromide'
_chemical_formula_structural 'Ba3 (P3 O10) Br'
_chemical_formula_sum 'Ba3 Br1 O10 P3'
_exptl_crystal_density_diffrn 4.34
_diffrn_ambient_temperature 293.
_citation_title
'Deep-ultraviolet nonlinear optical crystals: Ba3 P3 O10 X (X = Cl, Br)'
loop_
_citation_id
_citation_journal_full
_citation_year
_citation_journal_volume
_citation_page_first
_citation_page_last
_citation_journal_id_ASTM
primary 'Journal of the American Chemical Society' 2014 136 480 487 JACSAT
loop_
_citation_author_citation_id
_citation_author_name
primary 'Yu, Peng'
primary 'Wu, Li-Ming'
primary 'Zhou, Liu-Jiang'
primary 'Chen, Ling'
_cell_length_a 7.1722(18)
_cell_length_b 11.364(3)
_cell_length_c 13.998(4)
_cell_angle_alpha 90.
_cell_angle_beta 90.
_cell_angle_gamma 90.
_cell_volume 1140.9
_cell_formula_units_Z 4
_space_group_name_H-M_alt 'P 21 21 21'
_space_group_IT_number 19
loop_
_space_group_symop_id
_space_group_symop_operation_xyz
1 '-x, y+1/2, -z+1/2'
2 'x+1/2, -y+1/2, -z'
3 '-x+1/2, -y, z+1/2'
4 'x, y, z'
loop_
_atom_type_symbol
_atom_type_oxidation_number
Ba2+ 2
Br1- -1
P5+ 5
O2- -2
loop_
_atom_site_label
_atom_site_type_symbol
_atom_site_symmetry_multiplicity
_atom_site_Wyckoff_symbol
_atom_site_fract_x
_atom_site_fract_y
_atom_site_fract_z
_atom_site_U_iso_or_equiv
_atom_site_occupancy
Ba1 Ba2+ 4 a 0.12253(10) 0.24306(6) 0.40611(4) 0.01373(19) 1
Ba2 Ba2+ 4 a 0.13893(9) 0.75071(6) 0.38703(4) 0.01154(18) 1
Ba3 Ba2+ 4 a 0.37956(8) 0.49420(6) 0.17945(4) 0.00984(17) 1
Br1 Br1- 4 a 0.5263(2) 0.26429(12) 0.29061(11) 0.0347(4) 1
P1 P5+ 4 a 0.0830(3) 0.0028(3) 0.25079(17) 0.0091(5) 1
P2 P5+ 4 a 0.1857(3) 0.0105(3) 0.04049(19) 0.0111(4) 1
P3 P5+ 4 a 0.6131(4) 0.0151(3) 0.02544(18) 0.0112(5) 1
O1 O2- 4 a 0.0300(13) 0.3900(7) 0.2582(7) 0.0164(19) 1
O2 O2- 4 a 0.0360(14) 0.6096(8) 0.2354(7) 0.020(2) 1
O3 O2- 4 a 0.173(2) 0.6008(9) 0.0155(8) 0.043(4) 1
O4 O2- 4 a 0.1647(16) 0.3826(8) 0.0370(6) 0.025(2) 1
O5 O2- 4 a 0.1883(10) 0.0302(6) 0.1511(5) 0.0112(5) 1
O6 O2- 4 a 0.2620(10) 0.0041(9) 0.8224(5) 0.0173(15) 1
O7 O2- 4 a 0.3688(17) 0.1091(10) 0.5147(8) 0.036(3) 1
O8 O2- 4 a 0.3950(11) 0.0398(7) 0.0180(5) 0.0128(5) 1
O9 O2- 4 a 0.5803(15) 0.3922(10) 0.0051(8) 0.031(3) 1
O10 O2- 4 a 0.6639(12) 0.0335(8) 0.1281(6) 0.023(2) 1
loop_
_atom_site_aniso_label
_atom_site_aniso_type_symbol
_atom_site_aniso_U_11
_atom_site_aniso_U_22
_atom_site_aniso_U_33
_atom_site_aniso_U_12
_atom_site_aniso_U_13
_atom_site_aniso_U_23
Ba1 Ba2+ 0.0188(3) 0.0104(3) 0.0120(3) 0.0021(3) -0.0029(3) -0.0012(3)
Ba2 Ba2+ 0.0149(3) 0.0093(3) 0.0105(3) -0.0002(3) -0.0009(2) 0.0004(3)
Ba3 Ba2+ 0.0088(3) 0.0094(3) 0.0113(3) -0.0001(3) -0.0008(2) -0.0006(2)
Br1 Br1- 0.0362(7) 0.0138(7) 0.0543(8) 0.0110(6) 0.0230(6) 0.0133(7)
P1 P5+ 0.0091(8) 0.0100(9) 0.0081(9) -0.0021(9) -0.0008(7) -0.0001(9)
P2 P5+ 0.0104(7) 0.0132(8) 0.0098(7) -0.0017(8) 0.0006(7) -0.0002(7)
P3 P5+ 0.0099(8) 0.0150(9) 0.0087(9) -0.0006(9) -0.0002(8) 0.0010(8)
O1 O2- 0.016(4) 0.009(4) 0.024(5) 0.006(4) -0.010(4) -0.001(3)
O2 O2- 0.022(4) 0.018(5) 0.020(5) 0.003(4) -0.015(4) 0.003(4)
O3 O2- 0.098(11) 0.012(4) 0.019(5) 0.000(6) 0.003(6) -0.002(4)
O4 O2- 0.046(7) 0.018(4) 0.010(4) 0.001(4) -0.001(4) 0.008(3)
O5 O2- 0.0112(8) 0.0124(8) 0.0101(8) -0.0022(7) 0.0005(7) -0.0003(7)
O6 O2- 0.0171(17) 0.0177(18) 0.0172(18) -0.0002(10) 0.0007(10) 0.0003(10)
O7 O2- 0.038(3) 0.036(3) 0.036(3) -0.0012(10) -0.0007(10) -0.0003(10)
O8 O2- 0.0110(8) 0.0155(8) 0.0117(8) -0.0008(7) 0.0001(7) 0.0007(7)
O9 O2- 0.031(3) 0.031(3) 0.031(3) -0.0016(10) -0.0001(10) 0.0004(10)
O10 O2- 0.022(4) 0.034(5) 0.012(4) -0.019(4) -0.008(3) 0.004(4)
#End of TTdata_194201-ICSD