
#(C) 2020 by FIZ Karlsruhe - Leibniz Institute for Information Infrastructure.  All rights reserved.
data_194436-ICSD
_database_code_ICSD 194436
_audit_creation_date 2015-08-01
_chemical_name_common 'Potassium hexaselenophosphate'
_chemical_formula_structural 'K P Se6'
_chemical_formula_sum 'K1 P1 Se6'
_chemical_name_structure_type KPSe6
_exptl_crystal_density_diffrn 4.03
_diffrn_ambient_temperature 295.
_citation_title

;
Phase-change behavior and nonlinear optical second and third harmonic
generation of the one-dimensional K1-x Csx P Se6 and metastable beta- Cs P Se6
;
loop_
_citation_id
_citation_journal_full
_citation_year
_citation_journal_volume
_citation_page_first
_citation_page_last
_citation_journal_id_ASTM
primary 'Chemistry of Materials' 2015 27 1837 1846 CMATEX
loop_
_citation_author_citation_id
_citation_author_name
primary 'Haynes, Alyssa S.'
primary 'Saouma, Felix O.'
primary 'Otieno, Calford O.'
primary 'Clark, Daniel J.'
primary 'Shoemaker, Daniel P.'
primary 'Jang, Joon I.'
primary 'Kanatzidis, Mercouri G.'
_cell_length_a 11.56348(4)
_cell_length_b 6.830860(24)
_cell_length_c 11.35289(4)
_cell_angle_alpha 90.
_cell_angle_beta 90.
_cell_angle_gamma 90.
_cell_volume 896.75
_cell_formula_units_Z 4
_space_group_name_H-M_alt 'P c a 21'
_space_group_IT_number 29
loop_
_space_group_symop_id
_space_group_symop_operation_xyz
1 'x+1/2, -y, z'
2 '-x+1/2, y, z+1/2'
3 '-x, -y, z+1/2'
4 'x, y, z'
loop_
_atom_type_symbol
_atom_type_oxidation_number
P5+ 5
K1+ 1
Se1- -1
loop_
_atom_site_label
_atom_site_type_symbol
_atom_site_symmetry_multiplicity
_atom_site_Wyckoff_symbol
_atom_site_fract_x
_atom_site_fract_y
_atom_site_fract_z
_atom_site_U_iso_or_equiv
_atom_site_occupancy
P1 P5+ 4 a 0.8398(8) 0.2122(9) 0.6521(6) 0.0076(23) 1.
K1 K1+ 4 a 0.8714(8) 0.8015(9) 0.3469(5) 0.0166(21) 1.
Se1 Se1- 4 a 0.87018(34) 0.9332(5) 0.67354(27) 0.0165(10) 1.
Se2 Se1- 4 a 0.1277(4) 0.9271(5) 0.45108(30) 0.0403(12) 1.
Se3 Se1- 4 a 0.1236(6) 0.5596(6) 0.28332(30) 0.0525(15) 1.
Se4 Se1- 4 a 0.1409(4) 0.7324(5) 0.62250(34) 0.0378(12) 1.
Se5 Se1- 4 a 0.6114(4) 0.7456(5) 0.53628(33) 0.0365(11) 1.
Se6 Se1- 4 a 0.91022(28) 0.3200(4) 0.48000(30) 0.0150(9) 1.
#End of TTdata_194436-ICSD