
#(C) 2020 by FIZ Karlsruhe - Leibniz Institute for Information Infrastructure.  All rights reserved.
data_195357-ICSD
_database_code_ICSD 195357
_audit_creation_date 2016-02-01
_chemical_name_common 'Thallium tetraoxoaluminosilicate'
_chemical_formula_structural 'Tl (Al Si O4)'
_chemical_formula_sum 'Al1 O4 Si1 Tl1'
_chemical_name_structure_type KNiPO4
_exptl_crystal_density_diffrn 5.08
_diffrn_ambient_temperature 293.
_citation_title
'Thermo-elastic behavior and P/T phase stability of Tl Al Si O4 (ABW)'
loop_
_citation_id
_citation_journal_full
_citation_year
_citation_journal_volume
_citation_page_first
_citation_page_last
_citation_journal_id_ASTM
primary 'Microporous and Mesoporous Materials' 2014 197 262 267 MIMMFJ
loop_
_citation_author_citation_id
_citation_author_name
primary 'Gatta, G.Diego'
primary 'Lotti, Paolo'
primary 'Merlini, Marco'
primary 'Caputo, Domenico'
primary 'Aprea, Paolo'
primary 'Lausi, Andrea'
primary 'Colella, Carmine'
_cell_length_a 8.2719(2)
_cell_length_b 9.4373(2)
_cell_length_c 5.4180(1)
_cell_angle_alpha 90.
_cell_angle_beta 90.
_cell_angle_gamma 90.
_cell_volume 422.95
_cell_formula_units_Z 4
_space_group_name_H-M_alt 'P n a 21'
_space_group_IT_number 33
loop_
_space_group_symop_id
_space_group_symop_operation_xyz
1 'x+1/2, -y+1/2, z'
2 '-x+1/2, y+1/2, z+1/2'
3 '-x, -y, z+1/2'
4 'x, y, z'
loop_
_atom_type_symbol
_atom_type_oxidation_number
Tl1+ 1
Si4+ 4
Al3+ 3
O2- -2
loop_
_atom_site_label
_atom_site_type_symbol
_atom_site_symmetry_multiplicity
_atom_site_Wyckoff_symbol
_atom_site_fract_x
_atom_site_fract_y
_atom_site_fract_z
_atom_site_U_iso_or_equiv
_atom_site_occupancy
Tl1 Tl1+ 4 a -0.002(1) 0.6902(2) 0.256(4) 0.0393(5) 1.
Si1 Si4+ 4 a 0.290(2) 0.427(3) 0.249(3) 0.012(3) 1.
Al1 Al3+ 4 a 0.187(2) 0.085(2) 0.230(2) 0.013(3) 1.
O1 O2- 4 a -0.015(1) 0.052(2) 0.273(3) 0.034(3) 1.
O2 O2- 4 a 0.254(4) 0.258(3) 0.246(9) 0.034(3) 1.
O3 O2- 4 a 0.268(1) 0.007(7) 0.494(6) 0.034(3) 1.
O4 O2- 4 a 0.292(2) 0.005(7) -0.010(6) 0.034(3) 1.
#End of TTdata_195357-ICSD