
#(C) 2020 by FIZ Karlsruhe - Leibniz Institute for Information Infrastructure.  All rights reserved.
data_195590-ICSD
_database_code_ICSD 195590
_audit_creation_date 2016-02-01
_chemical_name_common 'Dilead tribarium tris(orthoborate) bromide'
_chemical_formula_structural 'Pb2 Ba3 (B O3)3 Br'
_chemical_formula_sum 'B3 Ba3 Br1 O9 Pb2'
_chemical_name_structure_type Sr5Br(BO3)3
_exptl_crystal_density_diffrn 5.89
_diffrn_ambient_temperature 296.
_citation_title

;
Synthesis and optical properties of the first lead borate bromide with
isolated BO3 groups: Pb2 Ba3 (B O3)3 Br
;
loop_
_citation_id
_citation_journal_full
_citation_year
_citation_journal_volume
_citation_page_first
_citation_page_last
_citation_journal_id_ASTM
primary 'Dalton Transactions' 2015 44 16818 16823 DTARAF
loop_
_citation_author_citation_id
_citation_author_name
primary 'Jing, Qun'
primary 'Dong, Xiaoyu'
primary 'Yang, Zhihua'
primary 'Pan, Shilie'
_cell_length_a 10.5385(13)
_cell_length_b 14.2877(17)
_cell_length_c 8.1074(10)
_cell_angle_alpha 90.
_cell_angle_beta 90.
_cell_angle_gamma 90.
_cell_volume 1220.73
_cell_formula_units_Z 4
_space_group_name_H-M_alt 'C 2 2 21'
_space_group_IT_number 20
loop_
_space_group_symop_id
_space_group_symop_operation_xyz
1 '-x, y, -z+1/2'
2 '-x, -y, z+1/2'
3 'x, -y, -z'
4 'x, y, z'
5 '-x+1/2, y+1/2, -z+1/2'
6 '-x+1/2, -y+1/2, z+1/2'
7 'x+1/2, -y+1/2, -z'
8 'x+1/2, y+1/2, z'
loop_
_atom_type_symbol
_atom_type_oxidation_number
Pb2+ 2
Ba2+ 2
B3+ 3
O2- -2
Br1- -1
loop_
_atom_site_label
_atom_site_type_symbol
_atom_site_symmetry_multiplicity
_atom_site_Wyckoff_symbol
_atom_site_fract_x
_atom_site_fract_y
_atom_site_fract_z
_atom_site_U_iso_or_equiv
_atom_site_occupancy
Pb1 Pb2+ 8 c 0.85035(5) 0.87905(3) 0.91824(6) 0.01738(15) 1
Ba1 Ba2+ 4 a 0.24046(9) 1. 1. 0.0118(2) 1
Ba2 Ba2+ 4 b 0.5 0.85273(6) 0.75 0.0096(2) 1
Ba3 Ba2+ 4 b 0.5 0.85063(6) 0.25 0.0116(2) 1
B1 B3+ 4 a 0.6209(16) 1. 1. 0.008(3) 1
B2 B3+ 8 c 0.7903(13) 0.7836(9) 0.5401(16) 0.011(3) 1
O1 O2- 8 c 0.6601(8) 0.8013(5) 0.9878(12) 0.0149(17) 1
O2 O2- 8 c 0.3283(7) 0.8124(5) 0.0059(12) 0.0166(18) 1
O3 O2- 4 a 0.4879(10) 1. 1. 0.012(2) 1
O4 O2- 8 c 0.6844(7) 0.9952(5) 0.8500(9) 0.0131(17) 1
O5 O2- 8 c 0.8626(10) 0.8386(6) 0.6417(10) 0.023(2) 1
Br1 Br1- 4 b 1. 0.91983(15) 1.25 0.0270(5) 1
loop_
_atom_site_aniso_label
_atom_site_aniso_type_symbol
_atom_site_aniso_U_11
_atom_site_aniso_U_22
_atom_site_aniso_U_33
_atom_site_aniso_U_12
_atom_site_aniso_U_13
_atom_site_aniso_U_23
Pb1 Pb2+ 0.0176(3) 0.0187(2) 0.0158(2) 0.0002(2) 0.0006(2) -0.0018(2)
Ba1 Ba2+ 0.0074(5) 0.0105(4) 0.0174(5) 0. 0. -0.0017(4)
Ba2 Ba2+ 0.0095(5) 0.0117(5) 0.0078(4) 0. -0.0008(4) 0.
Ba3 Ba2+ 0.0117(5) 0.0151(5) 0.0078(4) 0. -0.0012(5) 0.
B1 B3+ 0.009(9) 0.008(8) 0.009(8) 0. 0. 0.000(8)
B2 B3+ 0.007(7) 0.012(6) 0.014(8) 0.001(5) -0.003(5) 0.002(5)
O1 O2- 0.012(4) 0.010(4) 0.022(4) 0.003(3) -0.005(4) 0.003(4)
O2 O2- 0.008(4) 0.021(4) 0.021(4) -0.006(3) -0.004(4) 0.005(4)
O3 O2- 0.004(5) 0.018(6) 0.014(5) 0. 0. -0.001(5)
O4 O2- 0.016(4) 0.012(4) 0.012(4) 0.005(4) 0.003(3) 0.001(4)
O5 O2- 0.032(6) 0.016(4) 0.020(5) -0.005(4) -0.010(5) -0.003(4)
Br1 Br1- 0.0208(11) 0.0465(12) 0.0138(9) 0. -0.0033(9) 0.
#End of TTdata_195590-ICSD