
#(C) 2020 by FIZ Karlsruhe - Leibniz Institute for Information Infrastructure.  All rights reserved.
data_200146-ICSD
_database_code_ICSD 200146
_audit_creation_date 1980-01-01
_audit_update_record 1987-05-26
_chemical_name_common 'Hexapotassium hexaniobium tetragermanium oxide'
_chemical_formula_structural 'K6 Nb6 Ge4 O26'
_chemical_formula_sum 'Ge4 K6 Nb6 O26'
_chemical_name_structure_type K6Ta6Si4O26
_exptl_crystal_density_diffrn 4.19
_citation_title

;
Etude du comportement du germanium dans les structures a tunnels de section
pentagonale: Les silicogermanates K6 Nb6 Gex Si4-x O26
;
loop_
_citation_id
_citation_journal_full
_citation_year
_citation_journal_volume
_citation_page_first
_citation_page_last
_citation_journal_id_ASTM
primary 'Revue de Chimie Minerale' 1977 14 311 317 RVCMA8
loop_
_citation_author_citation_id
_citation_author_name
primary 'Choisnet, J.'
primary 'Nguyen, N.'
primary 'Raveau, B.'
_cell_length_a 9.188
_cell_length_b 9.188
_cell_length_c 8.123
_cell_angle_alpha 90.
_cell_angle_beta 90.
_cell_angle_gamma 120.
_cell_volume 593.87
_cell_formula_units_Z 1
_space_group_name_H-M_alt 'P -6 2 m'
_space_group_IT_number 189
loop_
_space_group_symop_id
_space_group_symop_operation_xyz
1 '-x, -x+y, -z'
2 'x-y, -y, -z'
3 'y, x, -z'
4 '-x, -x+y, z'
5 'x-y, -y, z'
6 'y, x, z'
7 '-x+y, -x, -z'
8 '-y, x-y, -z'
9 'x, y, -z'
10 '-x+y, -x, z'
11 '-y, x-y, z'
12 'x, y, z'
loop_
_atom_type_symbol
_atom_type_oxidation_number
K1+ 1
Ge4+ 4
Nb5+ 5
O2- -2
loop_
_atom_site_label
_atom_site_type_symbol
_atom_site_symmetry_multiplicity
_atom_site_Wyckoff_symbol
_atom_site_fract_x
_atom_site_fract_y
_atom_site_fract_z
_atom_site_B_iso_or_equiv
_atom_site_occupancy
K1 K1+ 3 g 0.610(5) 0 0.5 2.9 1.
K2 K1+ 3 f 0.599(6) 0 0 0.3 1.
Ge1 Ge4+ 4 h 0.33333 0.66667 0.219(2) 2.4 1.
Nb1 Nb5+ 6 i 0.232(1) 0 0.239(2) 0.6 1.
O1 O2- 2 c 0.33333 0.66667 0 0.1 1.
O2 O2- 3 f 0.228(14) 0 0 0.2 1.
O3 O2- 6 i 0.831(6) 0 0.292(13) 0.2 1.
O4 O2- 12 l 0.478(6) 0.166(6) 0.280(6) 0.2 1.
O5 O2- 3 g 0.256(9) 0 0.5 2.9 1.
#End of TTdata_200146-ICSD