
#(C) 2020 by FIZ Karlsruhe - Leibniz Institute for Information Infrastructure.  All rights reserved.
data_200264-ICSD
_database_code_ICSD 200264
_audit_creation_date 1980-01-01
_audit_update_record 2006-04-01
_chemical_name_common 'Diberyllium borate fluoride'
_chemical_formula_structural 'Be2 (B O3) F'
_chemical_formula_sum 'B1 Be2 F1 O3'
_exptl_crystal_density_diffrn 2.24
_citation_title 'Crystal structure of beryllium fluoride borate B2 (B O3) F'
loop_
_citation_id
_citation_journal_full
_citation_year
_citation_journal_volume
_citation_page_first
_citation_page_last
_citation_journal_id_ASTM
primary 'Zhurnal Strukturnoi Khimii' 1978 19 125 129 ZSTKAI
loop_
_citation_author_citation_id
_citation_author_name
primary 'Baidina, I.A.'
primary 'Bakakin, V.V.'
primary 'Podberezskaya, N.V.'
primary 'Alekseev, V.I.'
primary 'Batsanova, L.R.'
primary 'Pavlyuchenko, V.S.'
_cell_length_a 7.687(4)
_cell_length_b 4.439(3)
_cell_length_c 8.699(4)
_cell_angle_alpha 90.
_cell_angle_beta 107.08(5)
_cell_angle_gamma 90.
_cell_volume 283.74
_cell_formula_units_Z 4
_space_group_name_H-M_alt 'C 1 2 1'
_space_group_IT_number 5
loop_
_space_group_symop_id
_space_group_symop_operation_xyz
1 '-x, y, -z'
2 'x, y, z'
3 '-x+1/2, y+1/2, -z'
4 'x+1/2, y+1/2, z'
loop_
_atom_type_symbol
_atom_type_oxidation_number
B3+ 3
Be2+ 2
O2- -2
F1- -1
loop_
_atom_site_label
_atom_site_type_symbol
_atom_site_symmetry_multiplicity
_atom_site_Wyckoff_symbol
_atom_site_fract_x
_atom_site_fract_y
_atom_site_fract_z
_atom_site_B_iso_or_equiv
_atom_site_occupancy
B1 B3+ 2 a 0 -.3011(5) 0 . 1.
B2 B3+ 2 b 0 0.1983(5) 0.5 . 1.
Be1 Be2+ 4 c 0.1883(5) 0.1910(5) 0.0623(5) . 1.
Be2 Be2+ 4 c 0.3149(5) 0.1888(5) 0.4392(5) . 1.
O1 O2- 2 a 0 0 0 . 1.
O2 O2- 2 b 0 -.1216(2) 0.5 . 1.
O3 O2- 4 c 0.1524(1) 0.3502(2) 0.4955(1) . 1.
O4 O2- 4 c 0.3437(1) 0.0386(2) -.0040(1) . 1.
F1 F1- 4 c 0.2518(2) 0.1853(2) 0.2501(1) . 1.
#End of TTdata_200264-ICSD