
#(C) 2020 by FIZ Karlsruhe - Leibniz Institute for Information Infrastructure.  All rights reserved.
data_200517-ICSD
_database_code_ICSD 200517
_audit_creation_date 1980-01-01
_audit_update_record 2006-04-01
_chemical_name_common 'Trilead germanate'
_chemical_formula_structural 'Pb3 (Ge O5)'
_chemical_formula_sum 'Ge1 O5 Pb3'
_exptl_crystal_density_diffrn 8.47
_diffrn_ambient_temperature 773.
_citation_title 'Crystal structure of the high-temperature phase Pb3 Ge O5'
loop_
_citation_id
_citation_journal_full
_citation_year
_citation_journal_volume
_citation_page_first
_citation_page_last
_citation_journal_id_ASTM
primary Kristallografiya 1979 24 252 256 KRISAJ
loop_
_citation_author_citation_id
_citation_author_name
primary 'Ivanov, S.A.'
primary 'Rannev, N.V.'
primary 'Bush, A.A.'
primary 'Leichenko, A.I.'
primary 'Venevtsev, Yu.N.'
_cell_length_a 5.281(3)
_cell_length_b 5.489(3)
_cell_length_c 5.241(3)
_cell_angle_alpha 90.
_cell_angle_beta 90.
_cell_angle_gamma 91.80(3)
_cell_volume 151.85
_cell_formula_units_Z 1
_space_group_name_H-M_alt 'P 1 1 2'
_space_group_IT_number 3
loop_
_space_group_symop_id
_space_group_symop_operation_xyz
1 '-x, -y, z'
2 'x, y, z'
loop_
_atom_type_symbol
_atom_type_oxidation_number
Pb2+ 2
Ge4+ 4
O2- -2
loop_
_atom_site_label
_atom_site_type_symbol
_atom_site_symmetry_multiplicity
_atom_site_Wyckoff_symbol
_atom_site_fract_x
_atom_site_fract_y
_atom_site_fract_z
_atom_site_B_iso_or_equiv
_atom_site_occupancy
Pb1 Pb2+ 1 a 0 0 0 0.4(3) 1.
Pb2 Pb2+ 1 d 0.5 0.5 0 0.4(3) 1.
Pb3 Pb2+ 1 c 0 0.5 0.52 0.4(3) 1.
Ge1 Ge4+ 1 b 0.5 0 0.53 0.8(3) 1.
O1 O2- 2 e 0.31 0.19 0.34 2.5(3) 1.
O2 O2- 2 e 0.69 0.19 0.72 2.5(3) 1.
O3 O2- 1 c 0 0.5 -.02 2.0(3) 1.
#End of TTdata_200517-ICSD