
#(C) 2020 by FIZ Karlsruhe - Leibniz Institute for Information Infrastructure.  All rights reserved.
data_201040-ICSD
_database_code_ICSD 201040
_audit_creation_date 1981-12-31
_chemical_name_common 'Lithium thallium hydrogenphosphate(III)'
_chemical_formula_structural 'Li Tl P O3 H'
_chemical_formula_sum 'H1 Li1 O3 P1 Tl1'
_exptl_crystal_density_diffrn 4.99
_citation_title

;
Sur quelques phosphites doubles de cations monovalents de la serie Li M P O3
H, (H2 O)x. Etude structurale de Li Tl P O3 H
;
loop_
_citation_id
_citation_journal_full
_citation_year
_citation_journal_volume
_citation_page_first
_citation_page_last
_citation_journal_id_ASTM
primary 'Revue de Chimie Minerale' 1981 18 1 18 RVCMA8
loop_
_citation_author_citation_id
_citation_author_name
primary 'Rafiq, M.'
primary 'Durand, J.'
primary 'Cot, L.'
_cell_length_a 14.284(2)
_cell_length_b 5.091(1)
_cell_length_c 5.329(1)
_cell_angle_alpha 90.
_cell_angle_beta 89.19(1)
_cell_angle_gamma 90.
_cell_volume 387.49
_cell_formula_units_Z 4
_space_group_name_H-M_alt 'C 1 2 1'
_space_group_IT_number 5
loop_
_space_group_symop_id
_space_group_symop_operation_xyz
1 '-x, y, -z'
2 'x, y, z'
3 '-x+1/2, y+1/2, -z'
4 'x+1/2, y+1/2, z'
loop_
_atom_type_symbol
_atom_type_oxidation_number
Tl1+ 1
P3+ 3
O2- -2
Li1+ 1
H1+ 1
loop_
_atom_site_label
_atom_site_type_symbol
_atom_site_symmetry_multiplicity
_atom_site_Wyckoff_symbol
_atom_site_fract_x
_atom_site_fract_y
_atom_site_fract_z
_atom_site_B_iso_or_equiv
_atom_site_occupancy
Tl1 Tl1+ 4 c 0.09144(9) 0 0.2501(2) . 1.
P1 P3+ 4 c 0.3582(5) 0.041(2) 0.302(1) . 1.
O1 O2- 4 c 0.284(1) -.086(4) 0.138(4) . 1.
O2 O2- 4 c 0.353(2) -.007(8) 0.577(3) . 1.
O3 O2- 4 c 0.359(2) 0.329(4) 0.278(4) . 1.
Li1 Li1+ 4 c 0.754(4) 0.049(10) 0.191(10) . 1.
H1 H1+ 4 c 0.452 0.024 0.248 . 1.
#End of TTdata_201040-ICSD