
#(C) 2020 by FIZ Karlsruhe - Leibniz Institute for Information Infrastructure.  All rights reserved.
data_201282-ICSD
_database_code_ICSD 201282
_audit_creation_date 1981-12-31
_audit_update_record 2008-02-01
_chemical_name_common 'Lead tetragermanium oxide - gamma'
_chemical_formula_structural 'Pb Ge4 O9'
_chemical_formula_sum 'Ge4 O9 Pb1'
_exptl_crystal_density_diffrn 6.04
_citation_title 'The crystal structure of lead gamma-tetragermanate'
loop_
_citation_id
_citation_journal_full
_citation_year
_citation_journal_volume
_citation_page_first
_citation_page_last
_citation_journal_id_ASTM
primary 'Zhurnal Neorganicheskoi Khimii' 1981 26 2926 2928 ZNOKAQ
loop_
_citation_author_citation_id
_citation_author_name
primary 'Shashkov, A.Yu.'
primary 'Rannev, N.V.'
primary 'Venevtsev, Yu.N.'
_cell_length_a 7.328(3)
_cell_length_b 11.447(5)
_cell_length_c 6.822(3)
_cell_angle_alpha 90.
_cell_angle_beta 141.98(4)
_cell_angle_gamma 90.
_cell_volume 352.47
_cell_formula_units_Z 2
_space_group_name_H-M_alt 'C 1 2 1'
_space_group_IT_number 5
loop_
_space_group_symop_id
_space_group_symop_operation_xyz
1 '-x, y, -z'
2 'x, y, z'
3 '-x+1/2, y+1/2, -z'
4 'x+1/2, y+1/2, z'
loop_
_atom_type_symbol
_atom_type_oxidation_number
Pb2+ 2
Ge4+ 4
O2- -2
loop_
_atom_site_label
_atom_site_type_symbol
_atom_site_symmetry_multiplicity
_atom_site_Wyckoff_symbol
_atom_site_fract_x
_atom_site_fract_y
_atom_site_fract_z
_atom_site_B_iso_or_equiv
_atom_site_occupancy
Pb1 Pb2+ 2 a 0 0 0 . 1.
Ge1 Ge4+ 2 b 0 -.0127(8) 0.5 1. 1.
Ge2 Ge4+ 4 c 0.4023(11) 0.2086(5) 0.6871(19) 0.71 1.
Ge3 Ge4+ 2 a 0 0.3079(8) 0 1.01 1.
O1 O2- 4 c 0.721(16) 0.423(6) 0.843(23) 2.12 1.
O2 O2- 4 c 0.265(9) 0.181(3) 0.154(13) 1.14 1.
O3 O2- 4 c 0.793(9) 0.072(3) 0.488(13) 0.42 1.
O4 O2- 4 c 0.171(11) 0.317(4) 0.356(14) 1.08 1.
O5 O2- 2 a 0.5 0.255(6) 0 1.69 1.
loop_
_atom_site_aniso_label
_atom_site_aniso_type_symbol
_atom_site_aniso_U_11
_atom_site_aniso_U_22
_atom_site_aniso_U_33
_atom_site_aniso_U_12
_atom_site_aniso_U_13
_atom_site_aniso_U_23
Pb1 Pb2+ 0.0147(9) 0.0083(8) 0.0123(19) 0 0.0102(12) 0
#End of TTdata_201282-ICSD