
#(C) 2020 by FIZ Karlsruhe - Leibniz Institute for Information Infrastructure.  All rights reserved.
data_20155-ICSD
_database_code_ICSD 20155
_audit_creation_date 1981-12-31
_audit_update_record 2012-08-01
_chemical_name_common 'Trilithium dihydroxooctaoxopentaborate'
_chemical_formula_structural 'Li3 (B5 O8 (O H)2)'
_chemical_formula_sum 'H2 B5 Li3 O10'
_exptl_crystal_density_diffrn 2.3
_citation_title
'The deformation electronic density in lithium borate Li3 B5 O8 (O H)2'
loop_
_citation_id
_citation_journal_full
_citation_year
_citation_journal_volume
_citation_page_first
_citation_page_last
_citation_journal_id_ASTM
primary 'Doklady Akademii Nauk SSSR' 1981 257 111 114 DANKAS
loop_
_citation_author_citation_id
_citation_author_name
primary 'Sheviren, A.A.'
primary 'Muradyan, L.A.'
primary 'Simonov, V.I.'
primary 'Egorov Tismenko, Yu.K.'
primary 'Simonov, M.A.'
primary 'Belov, N.V.'
_cell_length_a 6.848(2)
_cell_length_b 6.848(2)
_cell_length_c 14.564(6)
_cell_angle_alpha 90.
_cell_angle_beta 90.
_cell_angle_gamma 90.
_cell_volume 682.98
_cell_formula_units_Z 4
_space_group_name_H-M_alt 'P 41 21 2'
_space_group_IT_number 92
loop_
_space_group_symop_id
_space_group_symop_operation_xyz
1 'x+1/2, -y+1/2, -z+3/4'
2 '-x+1/2, y+1/2, -z+1/4'
3 '-y, -x, -z+1/2'
4 'y, x, -z'
5 'y+1/2, -x+1/2, z+3/4'
6 '-y+1/2, x+1/2, z+1/4'
7 '-x, -y, z+1/2'
8 'x, y, z'
loop_
_atom_type_symbol
_atom_type_oxidation_number
O2- -2
B3+ 3
Li1+ 1
H1+ 1
loop_
_atom_site_label
_atom_site_type_symbol
_atom_site_symmetry_multiplicity
_atom_site_Wyckoff_symbol
_atom_site_fract_x
_atom_site_fract_y
_atom_site_fract_z
_atom_site_B_iso_or_equiv
_atom_site_occupancy
O1 O2- 8 b 0.1449(2) 0.0954(2) 0.26959(8) . 1.
O2 O2- 8 b 0.1917(2) 0.4500(2) 0.27081(7) . 1.
O3 O2- 8 b 0.4603(2) 0.2337(2) 0.23786(8) . 1.
O4 O2- 8 b 0.3241(2) 0.3731(2) 0.41789(7) . 1.
O5 O2- 8 b 0.1975(2) 0.2796(2) 0.12945(6) . 1.
B1 B3+ 8 b 0.2479(2) 0.2606(2) 0.22741(9) . 1.
B2 B3+ 8 b 0.0066(2) 0.2534(2) 0.10688(9) . 1.
B3 B3+ 4 a 0.5625(2) 0.5625(2) 0 . 1.
Li1 Li1+ 8 b 0.1354(7) 0.1504(6) 0.4069(3) . 1.
Li2 Li1+ 4 a 0.3038(7) 0.3038(6) 0 . 1.
H1 H1+ 8 b 0.377(4) -.015(3) 0.482(2) 2.97 1.
#End of TTdata_20155-ICSD