
#(C) 2020 by FIZ Karlsruhe - Leibniz Institute for Information Infrastructure.  All rights reserved.
data_20153-ICSD
_database_code_ICSD 20153
_audit_creation_date 1981-12-31
_audit_update_record 2012-08-01
_chemical_name_common 'Silver gallium germanium tetrasulfide'
_chemical_formula_structural 'Ag Ga Ge S4'
_chemical_formula_sum 'Ag1 Ga1 Ge1 S4'
_exptl_crystal_density_diffrn 3.98
_citation_title
'The crystal structure of the Ag-germanogallium sulfide and Ge S2'
loop_
_citation_id
_citation_journal_full
_citation_year
_citation_journal_volume
_citation_page_first
_citation_page_last
_citation_journal_id_ASTM
primary 'Doklady Akademii Nauk SSSR' 1981 257 611 614 DANKAS
loop_
_citation_author_citation_id
_citation_author_name
primary 'Pobedimskaya, E.A.'
primary 'Alimova, L.L.'
primary 'Belov, N.V.'
primary 'Badikov, V.V.'
_cell_length_a 12.028(3)
_cell_length_b 22.918(8)
_cell_length_c 6.874(1)
_cell_angle_alpha 90.
_cell_angle_beta 90.
_cell_angle_gamma 90.
_cell_volume 1894.87
_cell_formula_units_Z 12
_space_group_name_H-M_alt 'F d d 2'
_space_group_IT_number 43
loop_
_space_group_symop_id
_space_group_symop_operation_xyz
1 'x+1/4, -y+1/4, z+1/4'
2 '-x+1/4, y+1/4, z+1/4'
3 '-x, -y, z'
4 'x, y, z'
5 'x+1/4, -y+3/4, z+3/4'
6 '-x+1/4, y+3/4, z+3/4'
7 '-x, -y+1/2, z+1/2'
8 'x, y+1/2, z+1/2'
9 'x+3/4, -y+1/4, z+3/4'
10 '-x+3/4, y+1/4, z+3/4'
11 '-x+1/2, -y, z+1/2'
12 'x+1/2, y, z+1/2'
13 'x+3/4, -y+3/4, z+1/4'
14 '-x+3/4, y+3/4, z+1/4'
15 '-x+1/2, -y+1/2, z'
16 'x+1/2, y+1/2, z'
loop_
_atom_type_symbol
_atom_type_oxidation_number
Ga3+ 3
Ge4+ 4
Ga3+ 3
Ag1+ 1
S2- -2
loop_
_atom_site_label
_atom_site_type_symbol
_atom_site_symmetry_multiplicity
_atom_site_Wyckoff_symbol
_atom_site_fract_x
_atom_site_fract_y
_atom_site_fract_z
_atom_site_B_iso_or_equiv
_atom_site_occupancy
Ga1 Ga3+ 8 a 0 0 0 . 0.5
Ge1 Ge4+ 8 a 0 0 0 . 0.5
Ge2 Ge4+ 16 b 0.12058(10) 0.11454(5) 0.2762(7) . 0.5
Ga2 Ga3+ 16 b 0.12058(10) 0.11454(5) 0.2762(7) . 0.5
Ag1 Ag1+ 16 b 0.08309(18) 0.20925(9) 0.7307(9) . 0.75
S1 S2- 16 b 0.20150(27) 0.17470(13) 0.0564(13) . 1.
S2 S2- 16 b 0.15253(25) 0.02253(13) 0.1750(12) . 1.
S3 S2- 16 b 0.19037(24) 0.11881(14) 0.5730(13) . 1.
loop_
_atom_site_aniso_label
_atom_site_aniso_type_symbol
_atom_site_aniso_B_11
_atom_site_aniso_B_22
_atom_site_aniso_B_33
_atom_site_aniso_B_12
_atom_site_aniso_B_13
_atom_site_aniso_B_23
Ga1 Ga3+ 0.1 0.85(5) 0.67(5) 0 0 0
Ge1 Ge4+ 0.1 0.85(5) 0.67(5) 0 0 0
Ge2 Ge4+ 1.36(22) 0.71(3) 0.95(3) 0 0 0
Ga2 Ga3+ 1.36(22) 0.71(3) 0.95(3) 0 0 0
Ag1 Ag1+ 3.80(34) 3.88(9) 3.84(9) 1.72(16) 0.96(14) 0.81(7)
S1 S2- 0.20(56) 1.44(11) 1.35(10) 0.06(20) 0 0
S2 S2- 1.84(56) 1.16(9) 0.92(8) 0 0 0.16(7)
S3 S2- 0.10(54) 0.67(8) 1.75(10) 0 0.33(18) 0
#End of TTdata_20153-ICSD