
#(C) 2020 by FIZ Karlsruhe - Leibniz Institute for Information Infrastructure.  All rights reserved.
data_20172-ICSD
_database_code_ICSD 20172
_audit_creation_date 1980-01-01
_audit_update_record 1987-11-03
_chemical_name_common 'Aluminium hexaoxide borate'
_chemical_formula_structural 'Al5 (B O3) O6'
_chemical_formula_sum 'Al5 B1 O9'
_chemical_name_structure_type Al5(BO3)O6
_exptl_crystal_density_diffrn 2.94
_citation_title
'The crystal structure of the synthetic ortho-tri-borate Al5 (B O3) O6'
loop_
_citation_id
_citation_journal_full
_citation_year
_citation_journal_volume
_citation_page_first
_citation_page_last
_citation_journal_id_ASTM
primary 'Doklady Akademii Nauk SSSR' 1978 243 655 658 DANKAS
loop_
_citation_author_citation_id
_citation_author_name
primary 'Sokolova, E.V.'
primary 'Azizov, A.V.'
primary 'Simonov, N.A.'
primary 'Leonjuk, N.I.'
primary 'Belov, N.V.'
_cell_length_a 5.6673(7)
_cell_length_b 15.011(2)
_cell_length_c 7.693(1)
_cell_angle_alpha 90.
_cell_angle_beta 90.
_cell_angle_gamma 90.
_cell_volume 654.46
_cell_formula_units_Z 4
_space_group_name_H-M_alt 'C m c 21'
_space_group_IT_number 36
loop_
_space_group_symop_id
_space_group_symop_operation_xyz
1 'x, -y, z+1/2'
2 '-x, -y, z+1/2'
3 '-x, y, z'
4 'x, y, z'
5 'x+1/2, -y+1/2, z+1/2'
6 '-x+1/2, -y+1/2, z+1/2'
7 '-x+1/2, y+1/2, z'
8 'x+1/2, y+1/2, z'
loop_
_atom_type_symbol
_atom_type_oxidation_number
Al3+ 3
B3+ 3
O2- -2
loop_
_atom_site_label
_atom_site_type_symbol
_atom_site_symmetry_multiplicity
_atom_site_Wyckoff_symbol
_atom_site_fract_x
_atom_site_fract_y
_atom_site_fract_z
_atom_site_B_iso_or_equiv
_atom_site_occupancy
Al1 Al3+ 8 b 0.2519(1) 0.1163(1) 0.3333 . 1.
Al2 Al3+ 4 a 0 0.2553(1) 0.5197(2) . 1.
Al3 Al3+ 4 a 0 0.4441(1) 0.5157(2) . 1.
Al4 Al3+ 4 a 0 0.2969(1) 0.1674(2) . 1.
B1 B3+ 4 a 0 0.0156(2) 0.0547(4) . 1.
O1 O2- 4 a 0 0.3296(1) 0.7039(3) . 1.
O2 O2- 8 b 0.2571(2) 0.1901(1) 0.5344(2) . 1.
O3 O2- 4 a 0 0.4543(1) 0.9052(3) . 1.
O4 O2- 4 a 0 0.0463(1) 0.4258(3) . 1.
O5 O2- 4 a 0 0.3517(1) 0.3714(1) . 1.
O6 O2- 4 a 0 0.1911(1) 0.2684(3) . 1.
O7 O2- 8 b 0.2108(2) 0.0482(1) 0.1186(2) . 1.
#End of TTdata_20172-ICSD