
#(C) 2020 by FIZ Karlsruhe - Leibniz Institute for Information Infrastructure.  All rights reserved.
data_202606-ICSD
_database_code_ICSD 202606
_audit_creation_date 1989-06-19
_audit_update_record 1990-05-24
_chemical_name_common 'Lanthanum germanium oxide * - high temperature'
_chemical_formula_structural 'La2 Ge2 O7'
_chemical_formula_sum 'Ge2 La2 O7'
_exptl_crystal_density_diffrn 5.67
_citation_title

;
Determination structurale de la forme de haute temperature du compose La4 (Ge3
O10) (Ge O4): Analyse comparative des structures tricliniques des germanates
de terres rares de formule globale Ln2 Ge2 O7
;
loop_
_citation_id
_citation_journal_full
_citation_year
_citation_journal_volume
_citation_page_first
_citation_page_last
_citation_journal_id_ASTM
primary 'Journal of Solid State Chemistry' 1988 73 287 297 JSSCBI
loop_
_citation_author_citation_id
_citation_author_name
primary 'Vetter, G.'
primary 'Queyroux, F.'
_cell_length_a 7.080(2)
_cell_length_b 7.101(3)
_cell_length_c 6.928(2)
_cell_angle_alpha 87.74(2)
_cell_angle_beta 91.25(2)
_cell_angle_gamma 115.81(2)
_cell_volume 313.31
_cell_formula_units_Z 2
_space_group_name_H-M_alt 'P 1'
_space_group_IT_number 1
loop_
_space_group_symop_id
_space_group_symop_operation_xyz
1 'x, y, z'
loop_
_atom_type_symbol
_atom_type_oxidation_number
La3+ 3
Ge4+ 4
O2- -2
loop_
_atom_site_label
_atom_site_type_symbol
_atom_site_symmetry_multiplicity
_atom_site_Wyckoff_symbol
_atom_site_fract_x
_atom_site_fract_y
_atom_site_fract_z
_atom_site_B_iso_or_equiv
_atom_site_occupancy
La1 La3+ 1 a 0.3133(3) 0.8504(3) 0.4307(3) 0.35(1) 1.
La2 La3+ 1 a 0.7455(3) 0.0046(3) 0.8559(3) 0.37(1) 1.
La3 La3+ 1 a 0.3044(3) 0.3595(3) 0.1261(3) 0.24(1) 1.
La4 La3+ 1 a 0.8297(3) 0.3674(3) 0.3663(3) 0.24(1) 1.
Ge1 Ge4+ 1 a 0.1831(4) 0.8101(4) 0.9676(3) 0.17(2) 1.
Ge2 Ge4+ 1 a 0.7915(4) 0.8810(4) 0.3210(3) 0.18(2) 1.
Ge3 Ge4+ 1 a 0.3149(6) 0.3503(6) 0.6253(6) 0.22(2) 1.
Ge4 Ge4+ 1 a 0.7431(4) 0.5005(4) 0.8577(4) 0.23(2) 1.
O1 O2- 1 a 0.6970(18) 0.9852(18) 0.5010(18) 0.45(13) 1.
O2 O2- 1 a 0.4237(18) 0.2431(18) 0.4547(18) 0.43(12) 1.
O3 O2- 1 a 0.9242(20) 0.7423(20) 0.4096(20) 0.64(14) 1.
O4 O2- 1 a 0.208(2) 0.4776(20) 0.4579(19) 0.62(14) 1.
O5 O2- 1 a 0.1426(19) 0.1990(19) 0.7997(19) 0.54(13) 1.
O6 O2- 1 a 0.5270(19) 0.5432(19) 0.7576(19) 0.55(13) 1.
O7 O2- 1 a 0.8150(17) 0.3494(17) 0.7128(17) 0.33(11) 1.
O8 O2- 1 a 0.6522(20) 0.368(2) 0.0733(20) 0.71(14) 1.
O9 O2- 1 a 0.9277(18) 0.7697(19) 0.8730(18) 0.43(12) 1.
O10 O2- 1 a 0.9254(18) 0.1152(18) 0.1798(17) 0.38(12) 1.
O11 O2- 1 a 0.5680(21) 0.7481(22) 0.1751(21) 0.81(15) 1.
O12 O2- 1 a 0.3606(22) 0.8589(22) 0.7754(21) 0.85(16) 1.
O13 O2- 1 a 0.2788(20) 0.0041(20) 0.1358(20) 0.61(13) 1.
O14 O2- 1 a 0.1182(20) 0.5791(21) 0.0979(20) 0.69(14) 1.
#End of TTdata_202606-ICSD