
#(C) 2020 by FIZ Karlsruhe - Leibniz Institute for Information Infrastructure.  All rights reserved.
data_203201-ICSD
_database_code_ICSD 203201
_audit_creation_date 1996-10-14
_audit_update_record 2007-04-01
_chemical_name_common 'Lead oxide - boron oxide (1/2)'
_chemical_formula_structural '(Pb O) (B2 O3)2'
_chemical_formula_sum 'B4 O7 Pb1'
_chemical_name_structure_type SrB4O7
_exptl_crystal_density_diffrn 5.84
_citation_title 'Structure and optical non-linearity of Pb O * 2(B2 O3)'
loop_
_citation_id
_citation_journal_full
_citation_year
_citation_journal_volume
_citation_page_first
_citation_page_last
_citation_journal_id_ASTM
primary 'Acta Crystallographica, Section B: Structural Science' 1996 52 260 265
ASBSDK
loop_
_citation_author_citation_id
_citation_author_name
primary 'Corker, D.L.'
primary 'Glazer, A.M.'
_cell_length_a 4.251(2)
_cell_length_b 4.463(3)
_cell_length_c 10.860(3)
_cell_angle_alpha 90.
_cell_angle_beta 90.
_cell_angle_gamma 90.
_cell_volume 206.04
_cell_formula_units_Z 2
_space_group_name_H-M_alt 'P 21 n m'
_space_group_IT_number 31
loop_
_space_group_symop_id
_space_group_symop_operation_xyz
1 'x+1/2, -y, z+1/2'
2 'x+1/2, -y, -z+1/2'
3 'x, y, -z'
4 'x, y, z'
loop_
_atom_type_symbol
_atom_type_oxidation_number
Pb2+ 2
O2- -2
B3+ 3
loop_
_atom_site_label
_atom_site_type_symbol
_atom_site_symmetry_multiplicity
_atom_site_Wyckoff_symbol
_atom_site_fract_x
_atom_site_fract_y
_atom_site_fract_z
_atom_site_U_iso_or_equiv
_atom_site_occupancy
Pb1 Pb2+ 2 a -.0318(2) 0.19835(8) 0 0.0067(7) 1.
O1 O2- 2 a 0.584(2) 0.765(2) 0 0.004(1) 1.
O2 O2- 4 b 0.550(1) 0.362(1) 0.1448(5) 0.0052(9) 1.
O3 O2- 4 b 0.143(1) 0.730(1) -.1361(5) 0.0045(8) 1.
O4 O2- 4 b 0.150(1) 0.128(1) 0.2805(5) 0.0040(8) 1.
B1 B3+ 4 b -.025(4) 0.325(1) 0.3776(5) 0.0029(8) 1.
B2 B3+ 4 b 0.003(2) 0.820(2) 0.2479(5) 0.004(1) 1.
#End of TTdata_203201-ICSD