
#(C) 2020 by FIZ Karlsruhe - Leibniz Institute for Information Infrastructure.  All rights reserved.
data_20662-ICSD
_database_code_ICSD 20662
_audit_creation_date 1983-12-31
_audit_update_record 2015-08-01
_chemical_name_common 'Magnesium oxohexahydroxodiborate'
_chemical_formula_structural 'Mg (B2 O (O H)6)'
_chemical_formula_sum 'H6 B2 Mg1 O7'
_exptl_crystal_density_diffrn 2.29
_citation_title
'Refinement of the structure of pinnoite: Location of hydrogen atoms'
loop_
_citation_id
_citation_journal_full
_citation_year
_citation_journal_volume
_citation_page_first
_citation_page_last
_citation_journal_id_ASTM
primary Kristallografiya 1983 28 803 805 KRISAJ
loop_
_citation_author_citation_id
_citation_author_name
primary 'Genkina, E.A.'
primary 'Malinovskii, Yu.A.'
_cell_length_a 7.6140(13)
_cell_length_b 7.6140(13)
_cell_length_c 8.1898(8)
_cell_angle_alpha 90.
_cell_angle_beta 90.
_cell_angle_gamma 90.
_cell_volume 474.79
_cell_formula_units_Z 4
_space_group_name_H-M_alt 'P 42'
_space_group_IT_number 77
loop_
_space_group_symop_id
_space_group_symop_operation_xyz
1 'y, -x, z+1/2'
2 '-y, x, z+1/2'
3 '-x, -y, z'
4 'x, y, z'
loop_
_atom_type_symbol
_atom_type_oxidation_number
Mg2+ 2
O2- -2
B3+ 3
H1+ 1
loop_
_atom_site_label
_atom_site_type_symbol
_atom_site_symmetry_multiplicity
_atom_site_Wyckoff_symbol
_atom_site_fract_x
_atom_site_fract_y
_atom_site_fract_z
_atom_site_B_iso_or_equiv
_atom_site_occupancy
Mg1 Mg2+ 4 d 0.2483(3) 0.2509(3) 0.228(3) 0.91(2) 1.
O1 O2- 4 d 0.2398(5) 0.4812(5) 0.803(3) 1.04(11) 1.
O2 O2- 4 d 0.2684(5) 0.0166(5) 0.639(3) 0.89(9) 1.
O3 O2- 4 d 0.3356(5) 0.2423(5) 0.984(3) 0.91(10) 1.
O4 O2- 4 d 0.1594(6) 0.2635(6) 0.467(3) 1.22(11) 1.
O5 O2- 4 d 0.4818(5) 0.2881(4) 0.730(3) 0.89(9) 1.
O6 O2- 4 d 0.0192(5) 0.1992(4) 0.723(3) 0.87(9) 1.
O7 O2- 2 a 0 0 0.990(3) 1.10(11) 1.
O8 O2- 2 b 0.5 0.5 0.455(3) 0.64(11) 1.
B1 B3+ 4 d 0.3833(8) 0.3797(8) 0.873(3) 0.61(11) 1.
B2 B3+ 4 d 0.1080(8) 0.1183(8) 0.587(3) 1.12(12) 1.
H1 H1+ 4 d 0.138(9) 0.401(10) 0.799(10) 1.7(17) 1.
H2 H1+ 4 d 0.364(7) 0.107(8) 0.651(7) 2.1(18) 1.
H3 H1+ 4 d 0.308(10) 0.145(10) 0.932(10) 0.2(17) 1.
H4 H1+ 4 d 0.188(7) 0.367(7) 0.520(7) 3.8(17) 1.
H5 H1+ 4 d 0.472(10) 0.360(11) 0.630(11) 1.9(14) 1.
H6 H1+ 4 d 0.030(7) 0.150(9) 0.810(8) 2.1(14) 1.
#End of TTdata_20662-ICSD