
#(C) 2020 by FIZ Karlsruhe - Leibniz Institute for Information Infrastructure.  All rights reserved.
data_2081-ICSD
_database_code_ICSD 2081
_audit_creation_date 1980-01-01
_audit_update_record 2010-08-01
_chemical_name_common 'Dicesium bis(cyclo-triborate)'
_chemical_formula_structural 'Cs2 (B3 O5)2'
_chemical_formula_sum 'B6 Cs2 O10'
_chemical_name_structure_type CsB3O5
_exptl_crystal_density_diffrn 3.36
_citation_title
'Refinement of the crystal structure of cesium triborate, Cs2 O (B2 O3)3'
loop_
_citation_id
_citation_journal_full
_citation_year
_citation_journal_volume
_citation_page_first
_citation_page_last
_citation_journal_id_ASTM
primary

;
Acta Crystallographica, Section B: Structural Crystallography and Crystal
Chemistry
; 1974 30 1178 1180 ACBCAR
loop_
_citation_author_citation_id
_citation_author_name
primary 'Krogh-Moe, J.'
_cell_length_a 6.213(1)
_cell_length_b 8.521(1)
_cell_length_c 9.170(2)
_cell_angle_alpha 90.
_cell_angle_beta 90.
_cell_angle_gamma 90.
_cell_volume 485.47
_cell_formula_units_Z 2
_space_group_name_H-M_alt 'P 21 21 21'
_space_group_IT_number 19
loop_
_space_group_symop_id
_space_group_symop_operation_xyz
1 '-x, y+1/2, -z+1/2'
2 'x+1/2, -y+1/2, -z'
3 '-x+1/2, -y, z+1/2'
4 'x, y, z'
loop_
_atom_type_symbol
_atom_type_oxidation_number
Cs1+ 1
O2- -2
B3+ 3
loop_
_atom_site_label
_atom_site_type_symbol
_atom_site_symmetry_multiplicity
_atom_site_Wyckoff_symbol
_atom_site_fract_x
_atom_site_fract_y
_atom_site_fract_z
_atom_site_B_iso_or_equiv
_atom_site_occupancy
Cs1 Cs1+ 4 a 0.9804(4) 0.25884(6) 0.12926(6) . 1.
O1 O2- 4 a 0.4143 0.5656(6) 0.0565(6) . 1.
O2 O2- 4 a 0.6679(9) 0.5306(6) 0.2449(6) . 1.
O3 O2- 4 a 0.7480(9) 0.7147(6) 0.0589(6) . 1.
O4 O2- 4 a 0.4624 0.7720(6) 0.2328(6) . 1.
O5 O2- 4 a 0.6270(9) 0.9786(6) 0.0974(6) . 1.
B1 B3+ 4 a 0.7658(13) 0.8710(8) 0.0306(8) . 1.
B2 B3+ 4 a 0.4712(13) 0.9247(8) 0.1949(6) . 1.
B3 B3+ 4 a 0.5755(13) 0.6490(8) 0.1477(8) . 1.
loop_
_atom_site_aniso_label
_atom_site_aniso_type_symbol
_atom_site_aniso_U_11
_atom_site_aniso_U_22
_atom_site_aniso_U_33
_atom_site_aniso_U_12
_atom_site_aniso_U_13
_atom_site_aniso_U_23
Cs1 Cs1+ 0.0161(2) 0.0207(2) 0.0274(2) 0.0013(2) 0.0001(2) 0.0012(2)
O1 O2- 0.0143(20) 0.0089(20) 0.0167(20) 0.007(18) -.0096(18) 0.0004(18)
O2 O2- 0.0088(20) 0.0049(20) 0.0128(20) -.0015(18) -.0014(18) 0.0041(18)
O3 O2- 0.022(2) 0.005(2) 0.0144(20) 0.0022(18) 0.0096(18) 0.0028(18)
O4 O2- 0.0153 0.0048(20) 0.0117(20) 0.0021(18) 0.0053(18) 0.0006(18)
O5 O2- 0.0153(20) 0.0055(20) 0.018(2) -.0004(18) 0.0086(18) 0.0000(18)
B1 B3+ 0.0156(26) 0.0047(26) 0.0118(26) 0.0003(23) 0.0021(23) 0.0017(23)
B2 B3+ 0.0097(26) 0.0049(26) 0.0108(26) -.0009(23) 0.0017(23) -.0014(23)
B3 B3+ 0.0093(26) 0.0047(26) 0.0100(26) 0.0012(23) 0.0002(23) 0.0027(23)
#End of TTdata_2081-ICSD