
#(C) 2020 by FIZ Karlsruhe - Leibniz Institute for Information Infrastructure.  All rights reserved.
data_22009-ICSD
_database_code_ICSD 22009
_audit_creation_date 1980-01-01
_audit_update_record 2012-02-01
_chemical_name_common 'Trimagnesium chlorotridecaoxoheptaborate - HT'
_chemical_formula_structural 'Mg3 (B7 O13 Cl)'
_chemical_formula_sum 'B7 Cl1 Mg3 O13'
_chemical_name_structure_type Boracite#Mg3B7O13Cl(HT)
_chemical_name_mineral ''Boracite high''
_exptl_crystal_density_diffrn 2.94
_diffrn_ambient_temperature 673.
_citation_title 'Crystal-structure refinement of cubic boracite'
loop_
_citation_id
_citation_journal_full
_citation_year
_citation_journal_volume
_citation_page_first
_citation_page_last
_citation_journal_id_ASTM
primary 'American Mineralogist' 1973 58 691 697 AMMIAY
loop_
_citation_author_citation_id
_citation_author_name
primary 'Sueno, S.'
primary 'Clark, J.R.'
primary 'Papike, J.J.'
primary 'Konnert, J.A.'
_cell_length_a 12.0986(2)
_cell_length_b 12.0986(2)
_cell_length_c 12.0986(2)
_cell_angle_alpha 90.
_cell_angle_beta 90.
_cell_angle_gamma 90.
_cell_volume 1770.95
_cell_formula_units_Z 8
_space_group_name_H-M_alt 'F -4 3 c'
_space_group_IT_number 219
loop_
_space_group_symop_id
_space_group_symop_operation_xyz
1 '-z, y, -x+1/2'
2 '-y, x, -z+1/2'
3 '-x, z, -y+1/2'
4 'z, -y, -x+1/2'
5 'y, -x, -z+1/2'
6 'x, -z, -y+1/2'
7 '-z, -y, x+1/2'
8 '-y, -x, z+1/2'
9 '-x, -z, y+1/2'
10 'z, y, x+1/2'
11 'y, x, z+1/2'
12 'x, z, y+1/2'
13 '-z, -x, y'
14 '-y, -z, x'
15 '-x, -y, z'
16 'z, -x, -y'
17 'y, -z, -x'
18 'x, -y, -z'
19 '-z, x, -y'
20 '-y, z, -x'
21 '-x, y, -z'
22 'z, x, y'
23 'y, z, x'
24 'x, y, z'
25 '-z, y+1/2, -x'
26 '-y, x+1/2, -z'
27 '-x, z+1/2, -y'
28 'z, -y+1/2, -x'
29 'y, -x+1/2, -z'
30 'x, -z+1/2, -y'
31 '-z, -y+1/2, x'
32 '-y, -x+1/2, z'
33 '-x, -z+1/2, y'
34 'z, y+1/2, x'
35 'y, x+1/2, z'
36 'x, z+1/2, y'
37 '-z, -x+1/2, y+1/2'
38 '-y, -z+1/2, x+1/2'
39 '-x, -y+1/2, z+1/2'
40 'z, -x+1/2, -y+1/2'
41 'y, -z+1/2, -x+1/2'
42 'x, -y+1/2, -z+1/2'
43 '-z, x+1/2, -y+1/2'
44 '-y, z+1/2, -x+1/2'
45 '-x, y+1/2, -z+1/2'
46 'z, x+1/2, y+1/2'
47 'y, z+1/2, x+1/2'
48 'x, y+1/2, z+1/2'
49 '-z+1/2, y, -x'
50 '-y+1/2, x, -z'
51 '-x+1/2, z, -y'
52 'z+1/2, -y, -x'
53 'y+1/2, -x, -z'
54 'x+1/2, -z, -y'
55 '-z+1/2, -y, x'
56 '-y+1/2, -x, z'
57 '-x+1/2, -z, y'
58 'z+1/2, y, x'
59 'y+1/2, x, z'
60 'x+1/2, z, y'
61 '-z+1/2, -x, y+1/2'
62 '-y+1/2, -z, x+1/2'
63 '-x+1/2, -y, z+1/2'
64 'z+1/2, -x, -y+1/2'
65 'y+1/2, -z, -x+1/2'
66 'x+1/2, -y, -z+1/2'
67 '-z+1/2, x, -y+1/2'
68 '-y+1/2, z, -x+1/2'
69 '-x+1/2, y, -z+1/2'
70 'z+1/2, x, y+1/2'
71 'y+1/2, z, x+1/2'
72 'x+1/2, y, z+1/2'
73 '-z+1/2, y+1/2, -x+1/2'
74 '-y+1/2, x+1/2, -z+1/2'
75 '-x+1/2, z+1/2, -y+1/2'
76 'z+1/2, -y+1/2, -x+1/2'
77 'y+1/2, -x+1/2, -z+1/2'
78 'x+1/2, -z+1/2, -y+1/2'
79 '-z+1/2, -y+1/2, x+1/2'
80 '-y+1/2, -x+1/2, z+1/2'
81 '-x+1/2, -z+1/2, y+1/2'
82 'z+1/2, y+1/2, x+1/2'
83 'y+1/2, x+1/2, z+1/2'
84 'x+1/2, z+1/2, y+1/2'
85 '-z+1/2, -x+1/2, y'
86 '-y+1/2, -z+1/2, x'
87 '-x+1/2, -y+1/2, z'
88 'z+1/2, -x+1/2, -y'
89 'y+1/2, -z+1/2, -x'
90 'x+1/2, -y+1/2, -z'
91 '-z+1/2, x+1/2, -y'
92 '-y+1/2, z+1/2, -x'
93 '-x+1/2, y+1/2, -z'
94 'z+1/2, x+1/2, y'
95 'y+1/2, z+1/2, x'
96 'x+1/2, y+1/2, z'
loop_
_atom_type_symbol
_atom_type_oxidation_number
Cl1- -1
Mg2+ 2
B3+ 3
O2- -2
loop_
_atom_site_label
_atom_site_type_symbol
_atom_site_symmetry_multiplicity
_atom_site_Wyckoff_symbol
_atom_site_fract_x
_atom_site_fract_y
_atom_site_fract_z
_atom_site_B_iso_or_equiv
_atom_site_occupancy
Cl1 Cl1- 8 b 0.25 0.25 0.25 . 1.
Mg1 Mg2+ 24 c 0 0.25 0.25 . 1.
B1 B3+ 24 d 0.25 0 0 . 1.
B2 B3+ 32 e 0.0808(2) 0.0808(2) 0.0808(2) . 1.
O1 O2- 8 a 0 0 0 . 1.
O2 O2- 96 h 0.0987(2) 0.0214(2) 0.1821(2) . 1.
#End of TTdata_22009-ICSD