
#(C) 2020 by FIZ Karlsruhe - Leibniz Institute for Information Infrastructure.  All rights reserved.
data_23240-ICSD
_database_code_ICSD 23240
_audit_creation_date 1980-01-01
_audit_update_record 1987-11-03
_chemical_name_common
'Calcium borate * - III - prepared at 200000 MPS and 1173 K'
_chemical_formula_structural 'Ca B2 O4'
_chemical_formula_sum 'B2 Ca1 O4'
_exptl_crystal_density_diffrn 3.05
_citation_title
'The Crystal Structure of the High Pressure Phase Ca B2 O4 (III)'
loop_
_citation_id
_citation_journal_full
_citation_year
_citation_journal_volume
_citation_page_first
_citation_page_last
_citation_journal_id_ASTM
primary

;
Acta Crystallographica, Section B: Structural Crystallography and Crystal
Chemistry
; 1969 25 955 964 ACBCAR
loop_
_citation_author_citation_id
_citation_author_name
primary 'Marezio, M.'
primary 'Remeika, J.P.'
primary 'Dernier, P.D.'
_cell_length_a 11.380(2)
_cell_length_b 6.382(2)
_cell_length_c 11.304(2)
_cell_angle_alpha 90.
_cell_angle_beta 90.
_cell_angle_gamma 90.
_cell_volume 820.98
_cell_formula_units_Z 12
_space_group_name_H-M_alt 'P n a 21'
_space_group_IT_number 33
loop_
_space_group_symop_id
_space_group_symop_operation_xyz
1 'x+1/2, -y+1/2, z'
2 '-x+1/2, y+1/2, z+1/2'
3 '-x, -y, z+1/2'
4 'x, y, z'
loop_
_atom_type_symbol
_atom_type_oxidation_number
Ca2+ 2
B3+ 3
O2- -2
loop_
_atom_site_label
_atom_site_type_symbol
_atom_site_symmetry_multiplicity
_atom_site_Wyckoff_symbol
_atom_site_fract_x
_atom_site_fract_y
_atom_site_fract_z
_atom_site_B_iso_or_equiv
_atom_site_occupancy
Ca1 Ca2+ 4 a 0.07351(7) 0.05043(12) 0 . 1.
Ca2 Ca2+ 4 a 0.03257(6) 0.65995(12) 0.23386(10) . 1.
Ca3 Ca2+ 4 a 0.25309(7) 0.11288(13) 0.27955(10) . 1.
B1 B3+ 4 a 0.1401(3) 0.2529(6) 0.5390(4) . 1.
B2 B3+ 4 a 0.2510(4) 0.4193(6) 0.0515(4) . 1.
B3 B3+ 4 a 0.2131(3) 0.1191(6) 0.7403(4) . 1.
B4 B3+ 4 a 0.3222(3) 0.1006(6) 0.9442(4) . 1.
B5 B3+ 4 a 0.4658(4) 0.0183(6) 0.4800(4) . 1.
B6 B3+ 4 a 0.4748(3) 0.3758(6) 0.2477(4) . 1.
O1 O2- 4 a 0.2657(2) 0.1944(4) 0.0459(3) . 1.
O2 O2- 4 a 0.2171(2) 0.4704(4) 0.1734(3) . 1.
O3 O2- 4 a 0.0717(3) 0.0297(5) 0.2009(3) . 1.
O4 O2- 4 a 0.4547(3) 0.1715(5) 0.2567(3) . 1.
O5 O2- 4 a 0.2009(2) 0.3750(4) 0.4486(3) . 1.
O6 O2- 4 a 0.1456(2) 0.0322(4) 0.5116(3) . 1.
O7 O2- 4 a 0.0061(2) 0.3009(4) 0.5305(3) . 1.
O8 O2- 4 a 0.1734(2) 0.2946(4) 0.6635(3) . 1.
O9 O2- 4 a 0.1069(3) 0.0220(5) 0.7981(3) . 1.
O10 O2- 4 a 0.2870(2) 0.2046(4) 0.8336(3) . 1.
O11 O2- 4 a 0.4563(2) 0.1370(4) 0.9458(3) . 1.
O12 O2- 4 a 0.1504(2) 0.4768(4) 0.9668(3) . 1.
#End of TTdata_23240-ICSD