
#(C) 2020 by FIZ Karlsruhe - Leibniz Institute for Information Infrastructure.  All rights reserved.
data_237251-ICSD
_database_code_ICSD 237251
_audit_creation_date 2015-02-01
_chemical_name_common 'Silver gallium trigermanium octaselenide'
_chemical_formula_structural 'Ag (Ga Ge3) Se8'
_chemical_formula_sum 'Ag1 Ga1 Ge3 Se8'
_chemical_name_structure_type Ag0.25(Ga0.25Ge.075)S2
_exptl_crystal_density_diffrn 4.84
_citation_title

;
Optical spectra and band structure of Agx Gax Ge1-x Se2 (x = 0.333, 0.250,
0.200, 0.167) single crystals: experiment and theory
;
loop_
_citation_id
_citation_journal_full
_citation_year
_citation_journal_volume
_citation_page_first
_citation_page_last
_citation_journal_id_ASTM
primary 'Journal of Physical Chemistry B' 2013 117 15220 15231 JPCBFK
loop_
_citation_author_citation_id
_citation_author_name
primary 'Reshak, A.H.'
primary 'Parasyuk, O.V.'
primary 'Fedorchuk, A.O.'
primary 'Kamarudin, H.'
primary 'Auluck, S.'
primary 'Chysky, J.'
_cell_length_a 12.4423(6)
_cell_length_b 23.820(1)
_cell_length_c 7.1403(3)
_cell_angle_alpha 90.
_cell_angle_beta 90.
_cell_angle_gamma 90.
_cell_volume 2116.21
_cell_formula_units_Z 6
_space_group_name_H-M_alt 'F d d 2'
_space_group_IT_number 43
loop_
_space_group_symop_id
_space_group_symop_operation_xyz
1 'x+1/4, -y+1/4, z+1/4'
2 '-x+1/4, y+1/4, z+1/4'
3 '-x, -y, z'
4 'x, y, z'
5 'x+1/4, -y+3/4, z+3/4'
6 '-x+1/4, y+3/4, z+3/4'
7 '-x, -y+1/2, z+1/2'
8 'x, y+1/2, z+1/2'
9 'x+3/4, -y+1/4, z+3/4'
10 '-x+3/4, y+1/4, z+3/4'
11 '-x+1/2, -y, z+1/2'
12 'x+1/2, y, z+1/2'
13 'x+3/4, -y+3/4, z+1/4'
14 '-x+3/4, y+3/4, z+1/4'
15 '-x+1/2, -y+1/2, z'
16 'x+1/2, y+1/2, z'
loop_
_atom_type_symbol
_atom_type_oxidation_number
Ag1+ 1
Ga3+ 3
Ge4+ 4
Ga3+ 3
Ge4+ 4
Se2- -2
loop_
_atom_site_label
_atom_site_type_symbol
_atom_site_symmetry_multiplicity
_atom_site_Wyckoff_symbol
_atom_site_fract_x
_atom_site_fract_y
_atom_site_fract_z
_atom_site_B_iso_or_equiv
_atom_site_occupancy
Ag1 Ag1+ 16 b 0.0692(4) 0.2101(2) 0.7111(7) 7.3(2) 0.375
Ga1 Ga3+ 8 a 0 0 0.0017(4) 1.44(10) 0.25
Ge1 Ge4+ 8 a 0 0 0.0017(4) 1.44(10) 0.75
Ga2 Ga3+ 16 b 0.1226(2) 0.11358(9) 0.2736(3) 1.61(7) 0.25
Ge2 Ge4+ 16 b 0.1226(2) 0.11358(9) 0.2736(3) 1.61(7) 0.75
Se1 Se2- 16 b 0.2011(2) 0.17535(8) 0.0530(3) 1.29(6) 1.
Se2 Se2- 16 b 0.1599(2) 0.0206(1) 0.1701(3) 2.35(7) 1.
Se3 Se2- 16 b 0.1914(2) 0.12057(8) 0.5859(3) 0.94(6) 1.
#End of TTdata_237251-ICSD