
#(C) 2020 by FIZ Karlsruhe - Leibniz Institute for Information Infrastructure.  All rights reserved.
data_237218-ICSD
_database_code_ICSD 237218
_audit_creation_date 2015-02-01
_chemical_name_common 'Sodium tetrabarium bis(alumotetraborate) tribromide'
_chemical_formula_structural 'Na Ba4 (Al B4 O9)2 Br3'
_chemical_formula_sum 'Al2 B8 Ba4 Br3 Na1 O18'
_chemical_name_structure_type NaB4(AlB4O9)2Br3
_exptl_crystal_density_diffrn 4.09
_diffrn_ambient_temperature 296.
_citation_title

;
Effect of rigid units on the symmetry of the framework: design and synthesis
of centrosymmetric Na Ba4 (B5 O9)2 F2 Cl and noncentrosymmetric Na Ba4 (Al B4
O9)2 Br3
;
loop_
_citation_id
_citation_journal_full
_citation_year
_citation_journal_volume
_citation_page_first
_citation_page_last
_citation_journal_id_ASTM
primary 'Crystal Growth & Design' 2013 13 3514 3521 CGDEFU
loop_
_citation_author_citation_id
_citation_author_name
primary 'Yu, Hongwei'
primary 'Pan, Shilie'
primary 'Wu, Hongping'
primary 'Yang, Zhihua'
primary 'Dong, Lingyun'
primary 'Su, Xin'
primary 'Zhang, Bingbing'
primary 'Li, Hongyi'
_cell_length_a 12.144(5)
_cell_length_b 12.144(5)
_cell_length_c 6.824(6)
_cell_angle_alpha 90.
_cell_angle_beta 90.
_cell_angle_gamma 90.
_cell_volume 1006.38
_cell_formula_units_Z 2
_space_group_name_H-M_alt 'P 42 n m'
_space_group_IT_number 102
loop_
_space_group_symop_id
_space_group_symop_operation_xyz
1 '-y+1/2, x+1/2, z+1/2'
2 'y+1/2, -x+1/2, z+1/2'
3 '-y, -x, z'
4 'y, x, z'
5 '-x+1/2, y+1/2, z+1/2'
6 'x+1/2, -y+1/2, z+1/2'
7 '-x, -y, z'
8 'x, y, z'
loop_
_atom_type_symbol
_atom_type_oxidation_number
Ba2+ 2
Na1+ 1
Al3+ 3
Br1- -1
B3+ 3
O2- -2
loop_
_atom_site_label
_atom_site_type_symbol
_atom_site_symmetry_multiplicity
_atom_site_Wyckoff_symbol
_atom_site_fract_x
_atom_site_fract_y
_atom_site_fract_z
_atom_site_U_iso_or_equiv
_atom_site_occupancy
Ba1 Ba2+ 8 d 0.51755(4) 0.76930(4) 0.49015(14) 0.0146(2) 1
Na1 Na1+ 2 a 0.5 0.5 0.842(2) 0.058(4) 1
Al1 Al3+ 4 c 0.20063(17) 0.79937(17) 0.4991(7) 0.0054(6) 1
Br1 Br1- 2 a 0.5 0.5 0.4091(5) 0.0370(7) 1
Br2 Br1- 4 b 0.5 1. 0.2579(9) 0.0983(13) 1
B1 B3+ 8 d 0.4653(9) 0.7343(8) 1.0292(14) 0.013(2) 1
B2 B3+ 4 c 0.3143(8) 0.6857(8) 0.7907(19) 0.008(2) 1
B3 B3+ 4 c 0.2680(8) 0.7320(8) 0.134(2) 0.007(2) 1
O1 O2- 4 c 0.1983(5) 0.8017(5) 0.2426(12) 0.0067(15) 1
O2 O2- 8 d 0.0715(5) 0.7637(5) 0.5869(10) 0.0138(12) 1
O3 O2- 4 c 0.2970(5) 0.7030(5) 0.5876(12) 0.0100(16) 1
O4 O2- 8 d 0.4345(5) 0.7053(5) 0.8413(10) 0.0122(12) 1
O5 O2- 4 c 0.2459(5) 0.7541(5) 0.9147(13) 0.0044(15) 1
O6 O2- 8 d 0.3855(6) 0.7562(5) 0.1663(9) 0.0146(13) 1
loop_
_atom_site_aniso_label
_atom_site_aniso_type_symbol
_atom_site_aniso_U_11
_atom_site_aniso_U_22
_atom_site_aniso_U_33
_atom_site_aniso_U_12
_atom_site_aniso_U_13
_atom_site_aniso_U_23
Ba1 Ba2+ 0.0089(3) 0.0259(3) 0.0090(3) -0.00060(16) -0.0002(4) 0.0010(3)
Na1 Na1+ 0.057(5) 0.057(5) 0.061(9) 0.019(6) 0. 0.
Al1 Al3+ 0.0059(8) 0.0059(8) 0.0044(13) 0.0011(10) 0.0005(13) -0.0005(13)
Br1 Br1- 0.0187(6) 0.0187(6) 0.0738(19) -0.0002(8) 0. 0.
Br2 Br1- 0.0435(15) 0.0329(14) 0.219(4) -0.001(2) 0. 0.
#End of TTdata_237218-ICSD