
#(C) 2020 by FIZ Karlsruhe - Leibniz Institute for Information Infrastructure.  All rights reserved.
data_237758-ICSD
_database_code_ICSD 237758
_audit_creation_date 2015-02-01
_chemical_name_common 'Cadmium cesium gallium selenide (4/1/5/12)'
_chemical_formula_structural 'Cd4 Cs Ga5 Se12'
_chemical_formula_sum 'Cd4 Cs1 Ga5 Se12'
_chemical_name_structure_type KCd4Ga5S12
_exptl_crystal_density_diffrn 5.31
_diffrn_ambient_temperature 293.
_citation_title

;
Functionalization based on the substitutional flexibility: Strong middle IR
nonlinear optical selenides A X(II)4 X(III)5 Se12
;
loop_
_citation_id
_citation_journal_full
_citation_year
_citation_journal_volume
_citation_page_first
_citation_page_last
_citation_journal_id_ASTM
primary 'Journal of the American Chemical Society' 2013 135 12914 12921 JACSAT
loop_
_citation_author_citation_id
_citation_author_name
primary 'Lin, Hua'
primary 'Chen, Ling'
primary 'Zhou, Liu-Jiang'
primary 'Wu, Li-Ming'
_cell_length_a 14.4204(8)
_cell_length_b 14.4204(8)
_cell_length_c 9.7803(13)
_cell_angle_alpha 90.
_cell_angle_beta 90.
_cell_angle_gamma 120.
_cell_volume 1761.31
_cell_formula_units_Z 3
_space_group_name_H-M_alt 'R 3 H'
_space_group_IT_number 146
loop_
_space_group_symop_id
_space_group_symop_operation_xyz
1 '-x+y, -x, z'
2 '-y, x-y, z'
3 'x, y, z'
4 '-x+y+2/3, -x+1/3, z+1/3'
5 '-y+2/3, x-y+1/3, z+1/3'
6 'x+2/3, y+1/3, z+1/3'
7 '-x+y+1/3, -x+2/3, z+2/3'
8 '-y+1/3, x-y+2/3, z+2/3'
9 'x+1/3, y+2/3, z+2/3'
loop_
_atom_type_symbol
_atom_type_oxidation_number
Cs1+ 1
Cd2+ 2
Ga3+ 3
Cd2+ 2
Ga3+ 3
Cd2+ 2
Ga3+ 3
Se2- -2
loop_
_atom_site_label
_atom_site_type_symbol
_atom_site_symmetry_multiplicity
_atom_site_Wyckoff_symbol
_atom_site_fract_x
_atom_site_fract_y
_atom_site_fract_z
_atom_site_U_iso_or_equiv
_atom_site_occupancy
Cs1 Cs1+ 3 a 0. 0. 0.99940(12) 0.0311(3) 1
Cd1 Cd2+ 9 b 0.20434(6) 0.48661(7) 0.08469(10) 0.0191(2) 0.5615(4)
Ga1 Ga3+ 9 b 0.20434(6) 0.48661(7) 0.08469(10) 0.0191(2) 0.44
Cd2 Cd2+ 9 b 0.58818(14) 0.02140(12) 0.08143(7) 0.0196(3) 0.444(3)
Ga2 Ga3+ 9 b 0.58818(14) 0.02140(12) 0.08143(7) 0.0196(3) 0.56
Cd3 Cd2+ 9 b 0.35971(10) 0.10059(12) 0.07802(10) 0.0188(3) 0.327(3)
Ga3 Ga3+ 9 b 0.35971(10) 0.10059(12) 0.07802(10) 0.0188(3) 0.67
Se1 Se2- 9 b 0.07723(7) 0.29744(8) 0.99862(10) 0.0260(2) 1
Se2 Se2- 9 b 0.54708(7) 0.16530(7) 0.00894(9) 0.0212(3) 1
Se3 Se2- 9 b 0.29826(8) 0.22514(11) 0.00460(12) 0.0296(3) 1
Se4 Se2- 9 b 0.38385(8) 0.53899(8) 0.97895(10) 0.0270(3) 1
loop_
_atom_site_aniso_label
_atom_site_aniso_type_symbol
_atom_site_aniso_U_11
_atom_site_aniso_U_22
_atom_site_aniso_U_33
_atom_site_aniso_U_12
_atom_site_aniso_U_13
_atom_site_aniso_U_23
Cs1 Cs1+ 0.0315(3) 0.0315(3) 0.0304(6) 0.01573(17) 0. 0.
Cd1 Cd2+ 0.0179(4) 0.0210(5) 0.0182(5) 0.0097(4) 0.0012(4) 0.0012(4)
Ga1 Ga3+ 0.0179(4) 0.0210(5) 0.0182(5) 0.0097(4) 0.0012(4) 0.0012(4)
Cd2 Cd2+ 0.0200(5) 0.0185(5) 0.0180(7) 0.0080(4) 0.0013(3) 0.0021(3)
Ga2 Ga3+ 0.0200(5) 0.0185(5) 0.0180(7) 0.0080(4) 0.0013(3) 0.0021(3)
Cd3 Cd2+ 0.0208(4) 0.0177(4) 0.0169(5) 0.0090(3) -0.0002(3) 0.0002(3)
Ga3 Ga3+ 0.0208(4) 0.0177(4) 0.0169(5) 0.0090(3) -0.0002(3) 0.0002(3)
Se1 Se2- 0.0249(6) 0.0271(5) 0.0260(5) 0.0130(5) 0.0034(4) 0.0079(5)
Se2 Se2- 0.0187(4) 0.0189(4) 0.0253(6) 0.0089(3) 0.0022(4) 0.0007(4)
Se3 Se2- 0.0251(5) 0.0420(6) 0.0248(6) 0.0191(5) 0.0045(5) 0.0060(6)
Se4 Se2- 0.0330(6) 0.0234(4) 0.0199(6) 0.0105(4) 0.0010(4) -0.0011(4)
#End of TTdata_237758-ICSD