
#(C) 2020 by FIZ Karlsruhe - Leibniz Institute for Information Infrastructure.  All rights reserved.
data_237793-ICSD
_database_code_ICSD 237793
_audit_creation_date 2015-08-01
_chemical_name_common 'Tetrapotassium germanium dodecaselenotetraphosphate'
_chemical_formula_structural 'K4 Ge P4 Se12'
_chemical_formula_sum 'Ge1 K4 P4 Se12'
_exptl_crystal_density_diffrn 3.55
_diffrn_ambient_temperature 293.
_citation_title

;
Molecular germanium selenophosphate salts: Phase-change properties and strong
second harmonic generation
;
loop_
_citation_id
_citation_journal_full
_citation_year
_citation_journal_volume
_citation_page_first
_citation_page_last
_citation_journal_id_ASTM
primary 'Journal of the American Chemical Society' 2012 134 20733 20744 JACSAT
loop_
_citation_author_citation_id
_citation_author_name
primary 'Morris, Collin D.'
primary 'Chung, In'
primary 'Park, Sungoh'
primary 'Harrison, Connor M.'
primary 'Clark, Daniel J.'
primary 'Jang, Joon I.'
primary 'Kanatzidis, Mercouri G.'
_cell_length_a 13.9465(4)
_cell_length_b 7.2435(2)
_cell_length_c 24.0511(9)
_cell_angle_alpha 90.
_cell_angle_beta 90.
_cell_angle_gamma 90.
_cell_volume 2429.67
_cell_formula_units_Z 4
_space_group_name_H-M_alt 'P c a 21'
_space_group_IT_number 29
loop_
_space_group_symop_id
_space_group_symop_operation_xyz
1 'x+1/2, -y, z'
2 '-x+1/2, y, z+1/2'
3 '-x, -y, z+1/2'
4 'x, y, z'
loop_
_atom_type_symbol
_atom_type_oxidation_number
Se2- -2
Ge4+ 4
P4+ 4
K1+ 1
loop_
_atom_site_label
_atom_site_type_symbol
_atom_site_symmetry_multiplicity
_atom_site_Wyckoff_symbol
_atom_site_fract_x
_atom_site_fract_y
_atom_site_fract_z
_atom_site_U_iso_or_equiv
_atom_site_occupancy
Se1 Se2- 4 a 0.08895(7) 0.57546(15) 0.31944(5) 0.0256(2) 1
Se2 Se2- 4 a 0.13317(9) 0.08063(16) 0.33017(5) 0.0296(2) 1
Se3 Se2- 4 a 0.19460(6) 0.31355(16) 0.20376(4) 0.0244(2) 1
Se4 Se2- 4 a 0.34515(8) 0.6779(2) 0.30580(5) 0.0353(3) 1
Se5 Se2- 4 a 0.43953(8) 0.02070(17) 0.20958(5) 0.0314(2) 1
Se6 Se2- 4 a 0.43951(7) 0.53856(15) 0.17365(4) 0.0238(2) 1
Se7 Se2- 4 a 0.06391(7) 0.04980(14) 0.08865(5) 0.0224(2) 1
Se8 Se2- 4 a 0.51564(8) 0.23214(18) 0.45602(5) 0.0315(2) 1
Se9 Se2- 4 a 0.81726(7) 0.09083(15) 0.46320(5) 0.0259(2) 1
Se10 Se2- 4 a 0.11758(7) 0.56504(13) 0.06361(4) 0.02176(19) 1
Se11 Se2- 4 a 0.25047(8) 0.47304(15) 0.43594(5) 0.0281(2) 1
Se12 Se2- 4 a 0.32652(8) 0.27057(18) 0.06839(6) 0.0350(3) 1
Ge1 Ge4+ 4 a 0.08006(7) 0.34345(14) 0.13183(4) 0.01779(19) 1
P1 P4+ 4 a 0.09441(16) 0.3128(3) 0.28056(11) 0.0173(4) 1
P2 P4+ 4 a 0.44815(16) 0.7489(4) 0.24459(11) 0.0198(5) 1
P3 P4+ 4 a 0.10705(17) 0.1342(3) 0.00007(11) 0.0178(4) 1
P4 P4+ 4 a 0.21357(17) 0.3608(3) 0.01443(11) 0.0186(4) 1
K1 K1+ 4 a 0.0257(2) 0.3023(5) 0.43612(15) 0.0509(8) 1
K2 K1+ 4 a 0.3757(2) 0.1815(5) 0.34046(13) 0.0431(7) 1
K3 K1+ 4 a 0.6757(2) 0.1728(4) 0.21779(14) 0.0442(7) 1
K4 K1+ 4 a 0.83564(19) 0.1999(5) 0.06058(16) 0.0469(7) 1
loop_
_atom_site_aniso_label
_atom_site_aniso_type_symbol
_atom_site_aniso_U_11
_atom_site_aniso_U_22
_atom_site_aniso_U_33
_atom_site_aniso_U_12
_atom_site_aniso_U_13
_atom_site_aniso_U_23
Se1 Se2- 0.0304(5) 0.0224(5) 0.0240(5) -0.0013(4) 0.0003(4) -0.0069(4)
Se2 Se2- 0.0420(6) 0.0247(5) 0.0220(5) 0.0064(4) -0.0040(4) 0.0044(4)
Se3 Se2- 0.0183(4) 0.0377(5) 0.0172(5) 0.0006(4) 0.0002(3) -0.0014(4)
Se4 Se2- 0.0279(5) 0.0484(7) 0.0296(6) 0.0050(5) 0.0144(4) 0.0067(6)
Se5 Se2- 0.0420(6) 0.0270(5) 0.0253(5) 0.0126(4) 0.0025(4) 0.0031(5)
Se6 Se2- 0.0269(4) 0.0255(5) 0.0189(5) -0.0087(4) 0.0008(3) -0.0020(4)
Se7 Se2- 0.0357(5) 0.0161(4) 0.0153(4) -0.0019(4) 0.0006(4) -0.0007(4)
Se8 Se2- 0.0282(4) 0.0413(6) 0.0250(5) -0.0039(4) 0.0088(4) 0.0028(5)
Se9 Se2- 0.0344(5) 0.0235(5) 0.0199(5) 0.0045(4) -0.0018(4) 0.0070(4)
Se10 Se2- 0.0319(4) 0.0161(4) 0.0172(4) 0.0019(3) 0.0063(4) -0.0002(4)
Se11 Se2- 0.0397(5) 0.0246(5) 0.0202(5) 0.0003(4) -0.0089(4) 0.0011(5)
Se12 Se2- 0.0323(5) 0.0373(6) 0.0353(7) 0.0034(4) -0.0166(5) -0.0058(6)
Ge1 Ge4+ 0.0239(4) 0.0171(4) 0.0124(4) 0.0005(3) 0.0013(3) -0.0013(4)
P1 P4+ 0.0197(9) 0.0186(11) 0.0137(11) 0.0015(8) -0.0030(8) -0.0013(9)
P2 P4+ 0.0180(10) 0.0237(12) 0.0177(11) 0.0024(8) 0.0013(8) 0.0007(10)
P3 P4+ 0.0231(10) 0.0180(11) 0.0124(10) -0.0002(8) -0.0014(8) -0.0026(9)
P4 P4+ 0.0213(10) 0.0182(11) 0.0163(11) -0.0006(8) 0.0011(8) -0.0037(10)
K1 K1+ 0.0580(17) 0.0501(17) 0.0444(18) -0.0210(14) 0.0231(15) -0.0124(15)
K2 K1+ 0.0436(14) 0.0583(19) 0.0273(14) -0.0071(12) 0.0006(11) -0.0054(13)
K3 K1+ 0.0563(16) 0.0395(15) 0.0369(17) -0.0111(12) 0.0016(12) -0.0005(13)
K4 K1+ 0.0295(11) 0.0536(17) 0.058(2) 0.0029(11) -0.0029(12) -0.0172(16)
#End of TTdata_237793-ICSD