
#(C) 2020 by FIZ Karlsruhe - Leibniz Institute for Information Infrastructure.  All rights reserved.
data_23781-ICSD
_database_code_ICSD 23781
_audit_creation_date 1980-01-01
_audit_update_record 2007-08-01
_chemical_name_common 'Disodium catena-germanate'
_chemical_formula_structural 'Na2 (Ge O3)'
_chemical_formula_sum 'Ge1 Na2 O3'
_chemical_name_structure_type Na2SiO3
_exptl_crystal_density_diffrn 3.32
_citation_title
'Verfeinerung der Kristallstruktur des Natriummetagermanats, Na 2 Ge O3'
loop_
_citation_id
_citation_journal_full
_citation_year
_citation_journal_volume
_citation_page_first
_citation_page_last
_citation_journal_id_ASTM
primary 'Monatshefte fuer Chemie' 1971 102 964 970 MOCMB7
loop_
_citation_author_citation_id
_citation_author_name
primary 'Voellenkle, H.'
primary 'Wittmann, A.'
primary 'Nowotny, H.N.'
_cell_length_a 10.85
_cell_length_b 6.225
_cell_length_c 4.93
_cell_angle_alpha 90.
_cell_angle_beta 90.
_cell_angle_gamma 90.
_cell_volume 332.98
_cell_formula_units_Z 4
_space_group_name_H-M_alt 'C m c 21'
_space_group_IT_number 36
loop_
_space_group_symop_id
_space_group_symop_operation_xyz
1 'x, -y, z+1/2'
2 '-x, -y, z+1/2'
3 '-x, y, z'
4 'x, y, z'
5 'x+1/2, -y+1/2, z+1/2'
6 '-x+1/2, -y+1/2, z+1/2'
7 '-x+1/2, y+1/2, z'
8 'x+1/2, y+1/2, z'
loop_
_atom_type_symbol
_atom_type_oxidation_number
Na1+ 1
Ge4+ 4
O2- -2
loop_
_atom_site_label
_atom_site_type_symbol
_atom_site_symmetry_multiplicity
_atom_site_Wyckoff_symbol
_atom_site_fract_x
_atom_site_fract_y
_atom_site_fract_z
_atom_site_B_iso_or_equiv
_atom_site_occupancy
Na1 Na1+ 8 b 0.1672(4) 0.3394(7) 0.9658(18) 1.43 1.
Ge1 Ge4+ 4 a 0 0.1625(3) 0.5 0.81 1.
O1 O2- 4 a 0 0.1111(17) 0 0.52 1.
O2 O2- 8 b 0.1368(7) 0.2933(12) 0.4463(20) 1. 1.
#End of TTdata_23781-ICSD