
#(C) 2020 by FIZ Karlsruhe - Leibniz Institute for Information Infrastructure.  All rights reserved.
data_237810-ICSD
_database_code_ICSD 237810
_audit_creation_date 2015-08-01
_chemical_name_common 'Tetracadmium cesium pentagallium dodecasulfide'
_chemical_formula_structural 'Cd4 Cs Ga5 S12'
_chemical_formula_sum 'Cd4 Cs1 Ga5 S12'
_chemical_name_structure_type KCd4Ga5S12
_exptl_crystal_density_diffrn 4.19
_diffrn_ambient_temperature 293.
_citation_title

;
Sulfides with strong nonlinear optical activity and thermochromism: A Cd4 Ga5
S12 (A = K, Rb, Cs)
;
loop_
_citation_id
_citation_journal_full
_citation_year
_citation_journal_volume
_citation_page_first
_citation_page_last
_citation_journal_id_ASTM
primary 'Chemistry of Materials' 2012 24 3406 3414 CMATEX
loop_
_citation_author_citation_id
_citation_author_name
primary 'Lin, Hua'
primary 'Zhou, Liu-Jiang'
primary 'Chen, Ling'
_cell_length_a 13.8639(5)
_cell_length_b 13.8639(5)
_cell_length_c 9.3974(6)
_cell_angle_alpha 90.
_cell_angle_beta 90.
_cell_angle_gamma 120.
_cell_volume 1564.26
_cell_formula_units_Z 3
_space_group_name_H-M_alt 'R 3 H'
_space_group_IT_number 146
loop_
_space_group_symop_id
_space_group_symop_operation_xyz
1 '-x+y, -x, z'
2 '-y, x-y, z'
3 'x, y, z'
4 '-x+y+2/3, -x+1/3, z+1/3'
5 '-y+2/3, x-y+1/3, z+1/3'
6 'x+2/3, y+1/3, z+1/3'
7 '-x+y+1/3, -x+2/3, z+2/3'
8 '-y+1/3, x-y+2/3, z+2/3'
9 'x+1/3, y+2/3, z+2/3'
loop_
_atom_type_symbol
_atom_type_oxidation_number
Cs1+ 1
Cd2+ 2
Ga3+ 3
Cd2+ 2
Ga3+ 3
Cd2+ 2
Ga3+ 3
S2- -2
loop_
_atom_site_label
_atom_site_type_symbol
_atom_site_symmetry_multiplicity
_atom_site_Wyckoff_symbol
_atom_site_fract_x
_atom_site_fract_y
_atom_site_fract_z
_atom_site_U_iso_or_equiv
_atom_site_occupancy
Cs1 Cs1+ 3 a 0. 0. 0.00000(6) 0.02495(13) 1
Cd1 Cd2+ 9 b 0.18046(7) 0.12926(6) 0.41911(5) 0.01753(18) 0.5147(4)
Ga1 Ga3+ 9 b 0.18046(7) 0.12926(6) 0.41911(5) 0.01753(18) 0.49
Cd2 Cd2+ 9 b 0.43252(18) 0.02238(15) 0.08193(3) 0.0197(3) 0.4811(12)
Ga2 Ga3+ 9 b 0.43252(18) 0.02238(15) 0.08193(3) 0.0197(3) 0.52
Cd3 Cd2+ 9 b 0.35934(14) 0.25754(15) 0.07988(6) 0.0178(2) 0.3375(12)
Ga3 Ga3+ 9 b 0.35934(14) 0.25754(15) 0.07988(6) 0.0178(2) 0.66
S1 S2- 9 b 0.3653(3) 0.2560(2) 0.3309(2) 0.0298(7) 1
S2 S2- 9 b 0.6170(2) 0.16073(15) 0.0074(2) 0.0214(4) 1
S3 S2- 9 b 0.3006(2) 0.0750(2) 0.0033(2) 0.0359(7) 1
S4 S2- 9 b 0.0495(2) 0.1768(2) 0.3199(2) 0.0265(4) 1
loop_
_atom_site_aniso_label
_atom_site_aniso_type_symbol
_atom_site_aniso_U_11
_atom_site_aniso_U_22
_atom_site_aniso_U_33
_atom_site_aniso_U_12
_atom_site_aniso_U_13
_atom_site_aniso_U_23
Cs1 Cs1+ 0.02533(18) 0.02533(18) 0.0242(3) 0.01267(9) 0. 0.
Cd1 Cd2+ 0.0193(4) 0.0149(4) 0.0181(3) 0.0084(4) -0.0018(3) -0.0011(3)
Ga1 Ga3+ 0.0193(4) 0.0149(4) 0.0181(3) 0.0084(4) -0.0018(3) -0.0011(3)
Cd2 Cd2+ 0.0250(5) 0.0175(4) 0.0169(5) 0.0108(3) -0.00027(17) 0.00282(17)
Ga2 Ga3+ 0.0250(5) 0.0175(4) 0.0169(5) 0.0108(3) -0.00027(17) 0.00282(17)
Cd3 Cd2+ 0.0199(3) 0.0215(4) 0.0144(3) 0.0122(3) -0.0004(2) -0.0018(2)
Ga3 Ga3+ 0.0199(3) 0.0215(4) 0.0144(3) 0.0122(3) -0.0004(2) -0.0018(2)
S1 S2- 0.0330(12) 0.0274(10) 0.0318(11) 0.0172(8) -0.0120(6) -0.0072(6)
S2 S2- 0.0199(7) 0.0196(7) 0.0251(7) 0.0102(6) -0.0017(5) -0.0004(5)
S3 S2- 0.0218(10) 0.0400(11) 0.0274(10) 0.0014(7) 0.0045(6) -0.0065(7)
S4 S2- 0.0353(9) 0.0344(10) 0.0180(7) 0.0235(8) -0.0018(7) -0.0018(6)
#End of TTdata_237810-ICSD