
#(C) 2020 by FIZ Karlsruhe - Leibniz Institute for Information Infrastructure.  All rights reserved.
data_238073-ICSD
_database_code_ICSD 238073
_audit_creation_date 2015-08-01
_chemical_name_common 'Potassium antimony diborate'
_chemical_formula_structural 'K Sb B2 O6'
_chemical_formula_sum 'B2 K1 O6 Sb1'
_exptl_crystal_density_diffrn 3.81
_diffrn_ambient_temperature 293.
_citation_title

;
K Sb B2 O6 and Ba Sb2 B4 O12: novel boroantimonates with 3D anionic
architectures composed of 1D chains of Sb O6 octahedra and B2 O5 groups
;
loop_
_citation_id
_citation_journal_full
_citation_year
_citation_journal_volume
_citation_page_first
_citation_page_last
_citation_journal_id_ASTM
primary 'Inorganic Chemistry' 2014 53 3847 3853 INOCAJ
loop_
_citation_author_citation_id
_citation_author_name
primary 'Huang, Chao'
primary 'Zhang, Jian-Han'
primary 'Hu, Chun-Li'
primary 'Xu, Xiang'
primary 'Kong, Fang'
primary 'Mao, Jiang-Gao'
_cell_length_a 11.458(14)
_cell_length_b 7.019(14)
_cell_length_c 7.324(14)
_cell_angle_alpha 90.
_cell_angle_beta 124.413(16)
_cell_angle_gamma 90.
_cell_volume 485.93
_cell_formula_units_Z 4
_space_group_name_H-M_alt 'C 1 c 1'
_space_group_IT_number 9
loop_
_space_group_symop_id
_space_group_symop_operation_xyz
1 'x, -y, z+1/2'
2 'x, y, z'
3 'x+1/2, -y+1/2, z+1/2'
4 'x+1/2, y+1/2, z'
loop_
_atom_type_symbol
_atom_type_oxidation_number
K1+ 1
Sb5+ 5
B3+ 3
O2- -2
loop_
_atom_site_label
_atom_site_type_symbol
_atom_site_symmetry_multiplicity
_atom_site_Wyckoff_symbol
_atom_site_fract_x
_atom_site_fract_y
_atom_site_fract_z
_atom_site_U_iso_or_equiv
_atom_site_occupancy
K1 K1+ 4 a 0.67276(14) 0.48182(14) 0.4416(2) 0.0091(3) 1
Sb1 Sb5+ 4 a 0.76172(5) 0.01618(3) 0.26775(8) 0.00418(13) 1
B1 B3+ 4 a 0.4607(6) 0.1308(8) -0.0644(11) 0.0084(10) 1
B2 B3+ 4 a 0.4971(6) -0.2147(8) 0.0332(11) 0.0095(12) 1
O1 O2- 4 a 0.7619(4) 0.0922(6) 0.5230(7) 0.0078(7) 1
O2 O2- 4 a 0.4458(4) -0.3926(5) -0.0252(7) 0.0072(6) 1
O3 O2- 4 a 0.6349(4) -0.2002(5) 0.2113(8) 0.0074(7) 1
O4 O2- 4 a 0.5940(4) 0.1856(5) 0.0894(8) 0.0069(7) 1
O5 O2- 4 a 0.4150(4) -0.0593(6) -0.0889(8) 0.0097(7) 1
O6 O2- 4 a 0.3599(4) 0.2503(5) -0.2191(7) 0.0075(7) 1
loop_
_atom_site_aniso_label
_atom_site_aniso_type_symbol
_atom_site_aniso_U_11
_atom_site_aniso_U_22
_atom_site_aniso_U_33
_atom_site_aniso_U_12
_atom_site_aniso_U_13
_atom_site_aniso_U_23
K1 K1+ 0.0094(6) 0.0075(5) 0.0115(7) -0.0007(5) 0.0066(6) 0.0008(6)
Sb1 Sb5+ 0.00343(17) 0.00363(16) 0.00546(18) 0.0002(4) 0.00250(13) 0.0002(5)
B1 B3+ 0.010(3) 0.006(2) 0.010(3) 0.000(2) 0.007(2) -0.001(2)
B2 B3+ 0.009(3) 0.015(4) 0.009(3) 0.003(2) 0.008(2) 0.005(2)
O1 O2- 0.0134(16) 0.0050(19) 0.0084(18) 0.0003(12) 0.0083(15) 0.0006(12)
O2 O2- 0.0033(13) 0.0074(16) 0.0082(16) -0.0003(13) 0.0016(13) 0.0000(14)
O3 O2- 0.0066(15) 0.0048(15) 0.0101(19) 0.0000(12) 0.0043(15) 0.0016(13)
O4 O2- 0.0074(17) 0.0036(16) 0.011(2) 0.0010(12) 0.0059(16) 0.0015(13)
O5 O2- 0.0059(18) 0.0071(15) 0.014(2) 0.0012(16) 0.0040(16) -0.0009(17)
O6 O2- 0.0075(14) 0.0038(15) 0.011(2) 0.0010(12) 0.0049(14) -0.0018(14)
#End of TTdata_238073-ICSD