
#(C) 2020 by FIZ Karlsruhe - Leibniz Institute for Information Infrastructure.  All rights reserved.
data_238201-ICSD
_database_code_ICSD 238201
_audit_creation_date 2015-08-01
_chemical_name_common 'Indium niobium(V) bis(tellurate(IV))'
_chemical_formula_structural 'In Nb (Te O4)2'
_chemical_formula_sum 'In1 Nb1 O8 Te2'
_exptl_crystal_density_diffrn 6.2
_diffrn_ambient_temperature 298.
_citation_title

;
Strong second harmonic generation (S H G) originating from combined
second-order Jahn- Teller (S O J T) distortive cations in a new
noncentrosymmetric tellurite, In Nb (Te O4)2
;
loop_
_citation_id
_citation_journal_full
_citation_year
_citation_journal_volume
_citation_page_first
_citation_page_last
_citation_journal_id_ASTM
primary 'Inorganic Chemistry' 2014 53 5240 5245 INOCAJ
loop_
_citation_author_citation_id
_citation_author_name
primary 'Kim, Yeong Hun'
primary 'Lee, Dong Woo'
primary 'Ok, Kang Min'
_cell_length_a 7.63610(10)
_cell_length_b 10.82980(10)
_cell_length_c 7.65640(10)
_cell_angle_alpha 90
_cell_angle_beta 90
_cell_angle_gamma 90
_cell_volume 633.16
_cell_formula_units_Z 4
_space_group_name_H-M_alt 'P c a 21'
_space_group_IT_number 29
loop_
_space_group_symop_id
_space_group_symop_operation_xyz
1 'x+1/2, -y, z'
2 '-x+1/2, y, z+1/2'
3 '-x, -y, z+1/2'
4 'x, y, z'
loop_
_atom_type_symbol
_atom_type_oxidation_number
Te4+ 4
In3+ 3
Nb5+ 5
O2- -2
loop_
_atom_site_label
_atom_site_type_symbol
_atom_site_symmetry_multiplicity
_atom_site_Wyckoff_symbol
_atom_site_fract_x
_atom_site_fract_y
_atom_site_fract_z
_atom_site_U_iso_or_equiv
_atom_site_occupancy
Te1 Te4+ 4 a 0.70926(4) 0.24801(3) 0.32653(5) 0.00876(8) 1
Te2 Te4+ 4 a 0.23519(4) 0.28479(2) 0.23337(8) 0.00877(7) 1
In1 In3+ 4 a 0.00402(4) 0.48738(3) 0.47501(7) 0.00974(7) 1
Nb1 Nb5+ 4 a 0.96967(5) 0.00024(3) 0.48036(8) 0.00755(8) 1
O1 O2- 4 a 0.9178(4) 0.1726(3) 0.4077(4) 0.0107(7) 1
O2 O2- 4 a 0.9800(5) 0.0370(3) 0.7164(5) 0.0142(7) 1
O3 O2- 4 a 0.7446(4) -0.0519(3) 0.4665(7) 0.0132(7) 1
O4 O2- 4 a 0.5678(4) 0.1769(2) 0.5017(5) 0.0111(7) 1
O5 O2- 4 a 0.7518(4) 0.3965(3) 0.4566(5) 0.0095(8) 1
O6 O2- 4 a 0.4456(4) 0.3746(3) 0.2740(5) 0.0132(8) 1
O7 O2- 4 a 0.1873(4) 0.3374(3) 0.4853(6) 0.0126(6) 1
O8 O2- 4 a 0.0634(4) 0.4084(3) 0.2030(5) 0.0121(8) 1
loop_
_atom_site_aniso_label
_atom_site_aniso_type_symbol
_atom_site_aniso_U_11
_atom_site_aniso_U_22
_atom_site_aniso_U_33
_atom_site_aniso_U_12
_atom_site_aniso_U_13
_atom_site_aniso_U_23
Te1 Te4+ 0.00936(14) 0.00853(13) 0.00839(15) 0.00003(11) 0.00033(15) 0.00043(11)
Te2 Te4+ 0.00932(14) 0.00802(13) 0.00897(13) -0.00008(11) -0.00043(16)
0.00026(15)
In1 In3+ 0.00899(15) 0.01056(13) 0.00968(15) -0.00085(11) 0.0009(2) -0.0013(2)
Nb1 Nb5+ 0.00788(19) 0.00806(17) 0.00670(17) 0.00036(15) 0.0006(3) 0.0000(2)
O1 O2- 0.0070(16) 0.0101(14) 0.0149(16) 0.0016(12) -0.0023(13) 0.0032(13)
O2 O2- 0.0175(18) 0.0164(18) 0.0087(18) 0.0003(14) 0.0007(14) 0.0006(15)
O3 O2- 0.0094(14) 0.0133(14) 0.017(2) 0.0000(12) -0.0005(16) 0.0014(18)
O4 O2- 0.0094(15) 0.0089(13) 0.0150(19) -0.0016(11) 0.0014(16) 0.0020(15)
O5 O2- 0.0077(14) 0.0100(14) 0.011(2) -0.0004(12) 0.0006(14) -0.0019(14)
O6 O2- 0.0104(17) 0.0134(17) 0.016(2) -0.0021(13) 0.0007(13) -0.0016(14)
O7 O2- 0.0163(16) 0.0140(14) 0.0075(14) 0.0012(11) 0.001(2) -0.0010(18)
O8 O2- 0.0144(17) 0.0108(17) 0.0110(19) 0.0082(13) 0.0009(15) 0.0001(14)
#End of TTdata_238201-ICSD