
#(C) 2020 by FIZ Karlsruhe - Leibniz Institute for Information Infrastructure.  All rights reserved.
data_238604-ICSD
_database_code_ICSD 238604
_audit_creation_date 2016-02-01
_chemical_name_common 'Dilead(II) tribarium tris(borate) chloride'
_chemical_formula_structural 'Pb2 Ba3 (B O3)3 Cl'
_chemical_formula_sum 'B3 Ba3 Cl1 O9 Pb2'
_chemical_name_structure_type Sr5Br(BO3)3
_exptl_crystal_density_diffrn 5.74
_diffrn_ambient_temperature 296.
_citation_title

;
Pb2 Ba3 (B O3)3 Cl: a material with large SHG enhancement activated by
Pb-chelated B O3 groups
;
loop_
_citation_id
_citation_journal_full
_citation_year
_citation_journal_volume
_citation_page_first
_citation_page_last
_citation_journal_id_ASTM
primary 'Journal of the American Chemical Society' 2015 137 9417 9422 JACSAT
loop_
_citation_author_citation_id
_citation_author_name
primary 'Dong, Xiaoyu'
primary 'Jing, Qun'
primary 'Shi, Yunjing'
primary 'Yang, Zhihua'
primary 'Pan, Shilie'
primary 'Poeppelmeier, Kenneth R.'
primary 'Young, Joshua'
primary 'Rondinelli, James M.'
_cell_length_a 10.4706(11)
_cell_length_b 14.4379(15)
_cell_length_c 7.9454(9)
_cell_angle_alpha 90.
_cell_angle_beta 90.
_cell_angle_gamma 90.
_cell_volume 1201.13
_cell_formula_units_Z 4
_space_group_name_H-M_alt 'C 2 2 21'
_space_group_IT_number 20
loop_
_space_group_symop_id
_space_group_symop_operation_xyz
1 '-x, y, -z+1/2'
2 '-x, -y, z+1/2'
3 'x, -y, -z'
4 'x, y, z'
5 '-x+1/2, y+1/2, -z+1/2'
6 '-x+1/2, -y+1/2, z+1/2'
7 'x+1/2, -y+1/2, -z'
8 'x+1/2, y+1/2, z'
loop_
_atom_type_symbol
_atom_type_oxidation_number
Pb2+ 2
Ba2+ 2
B3+ 3
O2- -2
Cl1- -1
loop_
_atom_site_label
_atom_site_type_symbol
_atom_site_symmetry_multiplicity
_atom_site_Wyckoff_symbol
_atom_site_fract_x
_atom_site_fract_y
_atom_site_fract_z
_atom_site_U_iso_or_equiv
_atom_site_occupancy
Pb1 Pb2+ 8 c 0.64534(3) 0.62192(2) 0.92495(4) 0.01536(12) 1
Ba1 Ba2+ 4 a 0.76472(7) 1. 1. 0.01059(16) 1
Ba2 Ba2+ 4 b 0.5 1.14369(5) 0.75 0.00915(16) 1
Ba3 Ba2+ 4 b 0.5 0.85075(5) 0.75 0.01040(17) 1
B1 B3+ 4 a 0.8754(11) 0.5 1. 0.007(2) 1
B2 B3+ 8 c 0.7080(9) 0.7160(7) 0.5433(12) 0.009(2) 1
O1 O2- 8 c 0.6711(5) 0.8125(4) 0.9949(9) 0.0152(13) 1
O2 O2- 8 c 0.8390(6) 0.6993(4) 0.9874(9) 0.0156(13) 1
O3 O2- 4 a 0.5084(8) 1. 1. 0.0113(17) 1
O4 O2- 8 c 0.8114(6) 0.5061(5) 0.8475(8) 0.0145(13) 1
O5 O2- 8 c 0.6313(7) 0.6611(4) 0.6429(8) 0.0168(14) 1
Cl1 Cl1- 4 b 1. 1.0591(3) 1.25 0.0256(8) 1
loop_
_atom_site_aniso_label
_atom_site_aniso_type_symbol
_atom_site_aniso_U_11
_atom_site_aniso_U_22
_atom_site_aniso_U_33
_atom_site_aniso_U_12
_atom_site_aniso_U_13
_atom_site_aniso_U_23
Pb1 Pb2+ 0.01494(17) 0.01701(18) 0.01413(17) 0.00011(16) -0.00055(14)
0.00102(16)
Ba1 Ba2+ 0.0080(3) 0.0106(3) 0.0132(4) 0. 0. 0.0014(3)
Ba2 Ba2+ 0.0086(3) 0.0121(4) 0.0067(3) 0. 0.0003(3) 0.
Ba3 Ba2+ 0.0098(3) 0.0142(4) 0.0072(4) 0. -0.0010(3) 0.
B1 B3+ 0.002(5) 0.007(6) 0.011(6) 0. 0. -0.002(6)
B2 B3+ 0.009(2) 0.009(2) 0.009(2) 0.0006(10) 0.0000(10) 0.0002(10)
O1 O2- 0.008(3) 0.021(3) 0.016(3) 0.006(3) -0.001(3) -0.003(3)
O2 O2- 0.014(3) 0.013(3) 0.020(3) 0.004(3) 0.002(3) -0.001(3)
O3 O2- 0.005(4) 0.016(4) 0.013(4) 0. 0. 0.005(4)
O4 O2- 0.016(3) 0.019(3) 0.009(3) 0.000(3) -0.003(2) 0.001(3)
O5 O2- 0.020(3) 0.015(3) 0.015(3) -0.004(3) 0.008(3) 0.005(3)
Cl1 Cl1- 0.0179(16) 0.045(2) 0.0138(17) 0. 0.0037(14) 0.
#End of TTdata_238604-ICSD