
#(C) 2020 by FIZ Karlsruhe - Leibniz Institute for Information Infrastructure.  All rights reserved.
data_239113-ICSD
_database_code_ICSD 239113
_audit_creation_date 2016-08-01
_chemical_name_common 'Tetrasodium magnesium disilicium hexaselenide'
_chemical_formula_structural 'Na4 Mg Si2 Se6'
_chemical_formula_sum 'Mg1 Na4 Se6 Si2'
_exptl_crystal_density_diffrn 3.51
_diffrn_ambient_temperature 293.
_citation_title

;
Na4 Mg M2 Se6 (M = Si, Ge): the first noncentrosymmetric compounds with
special ethane-like [M2 Se6]6- units exhibiting large laser-damage thresholds
;
loop_
_citation_id
_citation_journal_full
_citation_year
_citation_journal_volume
_citation_page_first
_citation_page_last
_citation_journal_id_ASTM
primary 'Inorganic Chemistry' 2015 54 10108 10110 INOCAJ
loop_
_citation_author_citation_id
_citation_author_name
primary 'Wu, Kui'
primary 'Yang, Zhihua'
primary 'Pan, Shilie'
_cell_length_a 7.637(2)
_cell_length_b 11.868(3)
_cell_length_c 7.052(3)
_cell_angle_alpha 90.
_cell_angle_beta 106.729(14)
_cell_angle_gamma 90.
_cell_volume 612.11
_cell_formula_units_Z 2
_space_group_name_H-M_alt 'C 1 2 1'
_space_group_IT_number 5
loop_
_space_group_symop_id
_space_group_symop_operation_xyz
1 '-x, y, -z'
2 'x, y, z'
3 '-x+1/2, y+1/2, -z'
4 'x+1/2, y+1/2, z'
loop_
_atom_type_symbol
_atom_type_oxidation_number
Se2- -2.33
Si4+ 4
Mg2+ 2
Na1+ 1
loop_
_atom_site_label
_atom_site_type_symbol
_atom_site_symmetry_multiplicity
_atom_site_Wyckoff_symbol
_atom_site_fract_x
_atom_site_fract_y
_atom_site_fract_z
_atom_site_U_iso_or_equiv
_atom_site_occupancy
Se1 Se2- 4 c 0.72857(8) 0.46748(7) 0.72957(8) 0.01263(15) 1
Se2 Se2- 4 c 0.76428(9) 0.29348(4) 0.28617(7) 0.01419(17) 1
Se3 Se2- 4 c 0.76839(7) 0.15000(2) 0.74458(7) 0.01420(18) 1
Si1 Si4+ 4 c 0.65750(18) 0.30276(14) 0.55415(15) 0.0100(3) 1
Mg1 Mg2+ 2 b 1. 0.1273(3) 0.5 0.0164(6) 1
Na1 Na1+ 2 b 1. 0.4884(3) 0.5 0.0188(9) 1
Na2 Na1+ 2 a 0.5 0.1416(3) 1. 0.0267(8) 1
Na3 Na1+ 2 a 1. 0.3176(3) 1. 0.0229(9) 1
Na4 Na1+ 2 a 0.5 0.4545(4) 1. 0.0287(10) 1
loop_
_atom_site_aniso_label
_atom_site_aniso_type_symbol
_atom_site_aniso_U_11
_atom_site_aniso_U_22
_atom_site_aniso_U_33
_atom_site_aniso_U_12
_atom_site_aniso_U_13
_atom_site_aniso_U_23
Se1 Se2- 0.0121(3) 0.0110(2) 0.0137(3) -0.0002(3) 0.0020(3) -0.0018(3)
Se2 Se2- 0.0142(3) 0.0165(4) 0.0133(3) 0.0007(3) 0.0063(3) -0.0001(3)
Se3 Se2- 0.0145(3) 0.0124(4) 0.0151(3) 0.0018(3) 0.0034(2) 0.0026(2)
Si1 Si4+ 0.0084(8) 0.0102(6) 0.0109(6) 0.0013(6) 0.0022(5) 0.0004(6)
Mg1 Mg2+ 0.0131(13) 0.0163(15) 0.0188(12) 0. 0.0029(10) 0.
Na1 Na1+ 0.0177(19) 0.016(2) 0.0231(18) 0. 0.0065(14) 0.
Na2 Na1+ 0.0256(18) 0.0252(19) 0.0295(17) 0. 0.0084(14) 0.
Na3 Na1+ 0.019(2) 0.024(2) 0.0209(14) 0. -0.0032(14) 0.
Na4 Na1+ 0.028(2) 0.036(3) 0.025(2) 0. 0.0128(16) 0.
#End of TTdata_239113-ICSD