
#(C) 2020 by FIZ Karlsruhe - Leibniz Institute for Information Infrastructure.  All rights reserved.
data_239630-ICSD
_database_code_ICSD 239630
_audit_creation_date 2016-08-01
_chemical_name_common 'Trilithium dicesium distrontium triborohexaphosphate'
_chemical_formula_structural 'Li3 Cs2 Sr2 B3 P6 O24'
_chemical_formula_sum 'B3 Cs2 Li3 O24 P6 Sr2'
_exptl_crystal_density_diffrn 3.46
_diffrn_ambient_temperature 293.
_citation_title

;
Li3 Cs2 M2 B3 P6 O24 (M = Pb, Sr): borophosphates with double six-membered
ring of [B P2 O8]3-
;
loop_
_citation_id
_citation_journal_full
_citation_year
_citation_journal_volume
_citation_page_first
_citation_page_last
_citation_journal_id_ASTM
primary 'Dalton Transactions' 2016 45 7124 7130 DTARAF
loop_
_citation_author_citation_id
_citation_author_name
primary 'Zhang, Li-Jun'
primary 'Li, Yan-Yan'
primary 'Liu, Peng-Fei'
primary 'Chen, Ling'
_cell_length_a 12.6874(13)
_cell_length_b 12.6874(13)
_cell_length_c 12.6874(13)
_cell_angle_alpha 90.
_cell_angle_beta 90.
_cell_angle_gamma 90.
_cell_volume 2042.29
_cell_formula_units_Z 4
_space_group_name_H-M_alt 'P 21 3'
_space_group_IT_number 198
loop_
_space_group_symop_id
_space_group_symop_operation_xyz
1 '-z+1/2, -x, y+1/2'
2 '-y+1/2, -z, x+1/2'
3 '-x+1/2, -y, z+1/2'
4 '-z, x+1/2, -y+1/2'
5 '-y, z+1/2, -x+1/2'
6 '-x, y+1/2, -z+1/2'
7 'z+1/2, -x+1/2, -y'
8 'y+1/2, -z+1/2, -x'
9 'x+1/2, -y+1/2, -z'
10 'z, x, y'
11 'y, z, x'
12 'x, y, z'
loop_
_atom_type_symbol
_atom_type_oxidation_number
Cs1+ 1
Sr2+ 2
Li1+ 1
B3+ 3
P5+ 5
O2- -2
loop_
_atom_site_label
_atom_site_type_symbol
_atom_site_symmetry_multiplicity
_atom_site_Wyckoff_symbol
_atom_site_fract_x
_atom_site_fract_y
_atom_site_fract_z
_atom_site_U_iso_or_equiv
_atom_site_occupancy
Cs1 Cs1+ 4 a 0.649657(17) 0.350343(17) 0.850343(17) 0.01722(9) 1
Cs2 Cs1+ 4 a 0.155267(17) 0.655267(17) 0.844733(17) 0.02096(10) 1
Sr1 Sr2+ 4 a 0.40813(2) 0.09187(2) 0.90813(2) 0.01003(12) 1
Sr2 Sr2+ 4 a 0.42594(2) 0.57406(2) 0.07406(2) 0.01041(12) 1
Li1 Li1+ 12 b 0.4389(4) 0.5949(4) 0.8040(4) 0.0116(11) 1
B1 B3+ 12 b 0.8660(3) 0.6213(2) 0.8529(3) 0.0057(7) 1
P1 P5+ 12 b 0.58323(7) 0.31711(6) 0.55520(6) 0.00666(16) 1
P2 P5+ 12 b 0.65195(6) 0.63674(6) 0.88068(6) 0.00681(16) 1
O1 O2- 12 b 0.40293(17) 0.71109(16) 0.89525(16) 0.0127(5) 1
O2 O2- 12 b 0.60032(17) 0.29822(16) 0.43375(16) 0.0079(4) 1
O3 O2- 12 b 0.58786(17) 0.60011(18) 0.78767(16) 0.0117(5) 1
O4 O2- 12 b 0.46729(16) 0.36028(17) 0.55925(15) 0.0104(5) 1
O5 O2- 12 b 0.65536(17) 0.40151(16) 0.59767(17) 0.0120(4) 1
O6 O2- 12 b 0.76181(15) 0.57996(16) 0.87492(16) 0.0103(5) 1
O7 O2- 12 b 0.67929(16) 0.75578(15) 0.87461(17) 0.0130(5) 1
O8 O2- 12 b 0.60327(18) 0.61066(17) 0.98581(16) 0.0140(5) 1
loop_
_atom_site_aniso_label
_atom_site_aniso_type_symbol
_atom_site_aniso_U_11
_atom_site_aniso_U_22
_atom_site_aniso_U_33
_atom_site_aniso_U_12
_atom_site_aniso_U_13
_atom_site_aniso_U_23
Cs1 Cs1+ 0.01722(9) 0.01722(9) 0.01722(9) -0.00164(10) -0.00164(10) 0.00164(10)
Cs2 Cs1+ 0.02096(10) 0.02096(10) 0.02096(10) -0.00321(10) 0.00321(10)
0.00321(10)
Sr1 Sr2+ 0.01003(12) 0.01003(12) 0.01003(12) -0.00087(12) 0.00087(12)
-0.00087(12)
Sr2 Sr2+ 0.01041(12) 0.01041(12) 0.01041(12) -0.00079(12) -0.00079(12)
0.00079(12)
Li1 Li1+ 0.009(3) 0.016(3) 0.010(3) -0.003(2) 0.002(2) -0.004(2)
B1 B3+ 0.0063(16) 0.0044(15) 0.0065(15) 0.0021(13) 0.0012(14) -0.0005(13)
P1 P5+ 0.0072(4) 0.0065(4) 0.0063(4) -0.0003(3) 0.0006(3) 0.0009(3)
P2 P5+ 0.0064(4) 0.0065(4) 0.0075(4) 0.0003(3) -0.0007(3) 0.0003(3)
O1 O2- 0.0138(12) 0.0104(11) 0.0138(11) 0.0027(9) 0.0003(10) -0.0061(9)
O2 O2- 0.0093(11) 0.0075(10) 0.0068(10) -0.0008(9) 0.0006(9) -0.0007(8)
O3 O2- 0.0095(11) 0.0177(12) 0.0081(10) -0.0017(10) -0.0023(9) -0.0030(9)
O4 O2- 0.0076(10) 0.0180(12) 0.0057(10) 0.0016(9) 0.0018(8) 0.0009(9)
O5 O2- 0.0118(11) 0.0121(11) 0.0121(11) -0.0054(10) -0.0007(10) -0.0026(9)
O6 O2- 0.0075(10) 0.0074(10) 0.0161(12) 0.0002(9) -0.0005(9) -0.0019(9)
O7 O2- 0.0125(12) 0.0048(10) 0.0216(13) 0.0006(9) 0.0008(10) 0.0004(9)
O8 O2- 0.0136(12) 0.0179(12) 0.0104(11) 0.0003(10) 0.0028(9) 0.0023(9)
#End of TTdata_239630-ICSD