
#(C) 2020 by FIZ Karlsruhe - Leibniz Institute for Information Infrastructure.  All rights reserved.
data_239631-ICSD
_database_code_ICSD 239631
_audit_creation_date 2016-08-01
_chemical_name_common 'Trisodium triyttrium tetrakis(borate)'
_chemical_formula_structural 'Na3 Y3 (B O3)4'
_chemical_formula_sum 'B4 Na3 O12 Y3'
_exptl_crystal_density_diffrn 3.17
_diffrn_ambient_temperature 293.
_citation_title

;
Na3 Y3 (B O3)4: a new noncentrosymmetric borate with an open-framework
structure
;
loop_
_citation_id
_citation_journal_full
_citation_year
_citation_journal_volume
_citation_page_first
_citation_page_last
_citation_journal_id_ASTM
primary 'Dalton Transactions' 2016 45 7205 7208 DTARAF
loop_
_citation_author_citation_id
_citation_author_name
primary 'Shan, Faxian'
primary 'Kang, Lei'
primary 'Zhang, Guochun'
primary 'Yao, Jiyong'
primary 'Lin, Zheshuai'
primary 'Xia, Mingjun'
primary 'Zhang, Xinyuan'
primary 'Fu, Ying'
primary 'Wu, Yicheng'
_cell_length_a 10.1136(14)
_cell_length_b 10.1136(14)
_cell_length_c 6.7485(13)
_cell_angle_alpha 90.
_cell_angle_beta 90.
_cell_angle_gamma 120.
_cell_volume 597.79
_cell_formula_units_Z 2
_space_group_name_H-M_alt 'P 63 m c'
_space_group_IT_number 186
loop_
_space_group_symop_id
_space_group_symop_operation_xyz
1 '-x, -x+y, z+1/2'
2 'x-y, -y, z+1/2'
3 'y, x, z+1/2'
4 'x-y, x, z+1/2'
5 'y, -x+y, z+1/2'
6 '-x, -y, z+1/2'
7 'x, x-y, z'
8 '-x+y, y, z'
9 '-y, -x, z'
10 '-x+y, -x, z'
11 '-y, x-y, z'
12 'x, y, z'
loop_
_atom_type_symbol
_atom_type_oxidation_number
Na1+ 1
Y3+ 3
B3+ 3
O2- -2
loop_
_atom_site_label
_atom_site_type_symbol
_atom_site_symmetry_multiplicity
_atom_site_Wyckoff_symbol
_atom_site_fract_x
_atom_site_fract_y
_atom_site_fract_z
_atom_site_U_iso_or_equiv
_atom_site_occupancy
Na1 Na1+ 6 c 0.6621(6) 0.8310(3) 0.9061(8) 0.0343(12) 1
Y1 Y3+ 6 c 0.47699(4) 0.95398(8) 0.2151(2) 0.0162(2) 1
B1 B3+ 2 b 0.3333 0.6667 -0.111(3) 0.014(3) 1
B2 B3+ 6 c 0.4005(14) 1.2003(7) -0.052(2) 0.021(3) 1
O1 O2- 6 c 0.4124(3) 0.8249(7) -0.1033(10) 0.0158(13) 1
O2 O2- 6 c 0.2281(4) 0.7719(4) 0.2460(16) 0.029(2) 1
O3 O2- 12 d 0.3807(7) 1.0677(6) 0.0242(8) 0.0306(14) 1
loop_
_atom_site_aniso_label
_atom_site_aniso_type_symbol
_atom_site_aniso_U_11
_atom_site_aniso_U_22
_atom_site_aniso_U_33
_atom_site_aniso_U_12
_atom_site_aniso_U_13
_atom_site_aniso_U_23
Na1 Na1+ 0.031(2) 0.0160(14) 0.061(4) 0.0154(12) 0.017(3) 0.0083(13)
Y1 Y3+ 0.0176(3) 0.0100(3) 0.0183(4) 0.00500(17) -0.0009(3) -0.0017(7)
B1 B3+ 0.016(5) 0.016(5) 0.008(8) 0.008(3) 0. 0.
B2 B3+ 0.023(6) 0.011(3) 0.033(7) 0.011(3) -0.015(6) -0.008(3)
O1 O2- 0.018(2) 0.009(3) 0.016(3) 0.0047(15) 0.0000(13) 0.000(3)
O2 O2- 0.017(2) 0.017(2) 0.047(7) 0.006(3) 0.002(2) -0.002(2)
O3 O2- 0.039(3) 0.020(3) 0.035(4) 0.017(3) -0.009(2) 0.000(2)
#End of TTdata_239631-ICSD