
#(C) 2020 by FIZ Karlsruhe - Leibniz Institute for Information Infrastructure.  All rights reserved.
data_240989-ICSD
_database_code_ICSD 240989
_audit_creation_date 2008-08-01
_chemical_name_common 'Diyttrium digermanate'
_chemical_formula_structural 'Y2 (Ge2 O7)'
_chemical_formula_sum 'Ge2 O7 Y2'
_chemical_name_structure_type Er2Ge2O7
_exptl_crystal_density_diffrn 5.05
_diffrn_ambient_temperature 295.
_citation_title 'Yttrium pyrogermanate, Y2 Ge2 O7'
loop_
_citation_id
_citation_journal_full
_citation_year
_citation_journal_volume
_citation_page_first
_citation_page_last
_citation_journal_id_ASTM
primary 'Acta Crystallographica, Section C: Crystal Structure Communications'
2007 63 i93 i95 ACSCEE
loop_
_citation_author_citation_id
_citation_author_name
primary 'Redhammer, G.J.'
primary 'Roth, G.'
primary 'Amthauer, G.'
_cell_length_a 6.8022(4)
_cell_length_b 6.8022(4)
_cell_length_c 12.3759(7)
_cell_angle_alpha 90
_cell_angle_beta 90
_cell_angle_gamma 90
_cell_volume 572.63
_cell_formula_units_Z 4
_space_group_name_H-M_alt 'P 43 21 2'
_space_group_IT_number 96
loop_
_space_group_symop_id
_space_group_symop_operation_xyz
1 'x+1/2, -y+1/2, -z+1/4'
2 '-x+1/2, y+1/2, -z+3/4'
3 '-y, -x, -z+1/2'
4 'y, x, -z'
5 'y+1/2, -x+1/2, z+1/4'
6 '-y+1/2, x+1/2, z+3/4'
7 '-x, -y, z+1/2'
8 'x, y, z'
loop_
_atom_type_symbol
_atom_type_oxidation_number
Y3+ 3
Ge4+ 4
O2- -2
loop_
_atom_site_label
_atom_site_type_symbol
_atom_site_symmetry_multiplicity
_atom_site_Wyckoff_symbol
_atom_site_fract_x
_atom_site_fract_y
_atom_site_fract_z
_atom_site_U_iso_or_equiv
_atom_site_occupancy
Y1 Y3+ 8 b 0.35253(7) 0.87655(6) 0.63502(3) 0.00521(17) 1
Ge1 Ge4+ 8 b 0.09884(6) 0.84685(8) 0.38026(4) 0.00476(18) 1
O1 O2- 4 a 0.1966(5) 0.8034(5) 0.25 0.0112(11) 1
O2 O2- 8 b -0.0774(5) 1.0315(5) 0.3763(3) 0.0084(7) 1
O3 O2- 8 b -0.0635(5) 0.6617(5) 0.4290(3) 0.0065(6) 1
O4 O2- 8 b 0.3138(5) 0.8577(6) 0.4552(3) 0.0085(7) 1
loop_
_atom_site_aniso_label
_atom_site_aniso_type_symbol
_atom_site_aniso_U_11
_atom_site_aniso_U_22
_atom_site_aniso_U_33
_atom_site_aniso_U_12
_atom_site_aniso_U_13
_atom_site_aniso_U_23
Y1 Y3+ 0.0056(2) 0.0059(2) 0.0042(2) 0.00003(16) -0.00023(18) -0.00015(17)
Ge1 Ge4+ 0.0045(3) 0.0052(3) 0.0045(3) 0.00007(17) 0.00001(18) 0.0006(2)
O1 O2- 0.0144(17) 0.0144(17) 0.005(2) 0.005(2) 0.0013(14) 0.0013(14)
O2 O2- 0.0059(14) 0.0074(17) 0.0119(17) 0.0022(12) -0.0007(15) -0.0024(14)
O3 O2- 0.0092(15) 0.0041(16) 0.0062(14) -0.0036(14) 0.0005(12) 0.0002(13)
O4 O2- 0.0057(16) 0.0162(17) 0.0034(15) -0.0012(14) -0.0011(12) 0.0004(14)
#End of TTdata_240989-ICSD