
#(C) 2020 by FIZ Karlsruhe - Leibniz Institute for Information Infrastructure.  All rights reserved.
data_241126-ICSD
_database_code_ICSD 241126
_audit_creation_date 2008-08-01
_chemical_name_common 'Trirubidium diyttrium triborate'
_chemical_formula_structural 'Rb3 Y2 (B O3)3'
_chemical_formula_sum 'B3 O9 Rb3 Y2'
_exptl_crystal_density_diffrn 4.01
_diffrn_ambient_temperature 113.
_citation_title 'Rb3 Y2 (B O3)3 with a noncentrosymmetric structure'
loop_
_citation_id
_citation_journal_full
_citation_year
_citation_journal_volume
_citation_page_first
_citation_page_last
_citation_journal_id_ASTM
primary 'Acta Crystallographica, Section C: Crystal Structure Communications'
2007 63 i112 i114 ACSCEE
loop_
_citation_author_citation_id
_citation_author_name
primary 'Gao, J.H.'
primary 'Li, R.-K.'
_cell_length_a 8.6811(4)
_cell_length_b 9.5627(4)
_cell_length_c 12.1914(6)
_cell_angle_alpha 90.
_cell_angle_beta 90.
_cell_angle_gamma 90.
_cell_volume 1012.07
_cell_formula_units_Z 4
_space_group_name_H-M_alt 'P n a 21'
_space_group_IT_number 33
loop_
_space_group_symop_id
_space_group_symop_operation_xyz
1 'x+1/2, -y+1/2, z'
2 '-x+1/2, y+1/2, z+1/2'
3 '-x, -y, z+1/2'
4 'x, y, z'
loop_
_atom_type_symbol
_atom_type_oxidation_number
Rb1+ 1
Y3+ 3
O2- -2
B3+ 3
loop_
_atom_site_label
_atom_site_type_symbol
_atom_site_symmetry_multiplicity
_atom_site_Wyckoff_symbol
_atom_site_fract_x
_atom_site_fract_y
_atom_site_fract_z
_atom_site_U_iso_or_equiv
_atom_site_occupancy
Rb1 Rb1+ 4 a 0.09493(9) 0.69553(8) 0.59244(8) 0.0145(2) 1
Rb2 Rb1+ 4 a -0.29558(9) 0.46888(8) 0.57953(9) 0.0174(2) 1
Rb3 Rb1+ 4 a 0.35348(11) 0.35789(9) 0.74228(8) 0.0137(2) 1
Y1 Y3+ 4 a 0.00906(12) 0.50802(10) 0.33006(9) 0.0117(2) 1
Y2 Y3+ 4 a 0.35696(10) 0.38659(9) 0.39782(7) 0.0115(2) 1
O1 O2- 4 a 0.3796(7) 0.8201(6) 0.4106(5) 0.0126(14) 1
O2 O2- 4 a 0.4540(6) 0.5876(6) 0.4675(5) 0.0148(14) 1
O3 O2- 4 a 0.2511(7) 0.6105(6) 0.3409(5) 0.0150(14) 1
O4 O2- 4 a 0.1737(7) 0.3367(6) 0.2601(5) 0.0118(14) 1
O5 O2- 4 a 0.0374(7) 0.1205(6) 0.2707(5) 0.0144(15) 1
O6 O2- 4 a 0.3036(7) 0.1420(5) 0.3343(5) 0.0126(13) 1
O7 O2- 4 a 0.1200(6) 0.4176(6) 0.4852(5) 0.0128(14) 1
O8 O2- 4 a -0.0371(6) 0.2269(5) 0.5377(4) 0.0127(13) 1
O9 O2- 4 a 0.0244(6) 0.4039(6) 0.6678(5) 0.0124(13) 1
B1 B3+ 4 a 0.3637(12) 0.6741(11) 0.4076(10) 0.014(2) 1
B2 B3+ 4 a 0.1695(13) 0.1962(11) 0.2872(9) 0.014(2) 1
B3 B3+ 4 a 0.0371(10) 0.3487(10) 0.5645(9) 0.013(2) 1
loop_
_atom_site_aniso_label
_atom_site_aniso_type_symbol
_atom_site_aniso_U_11
_atom_site_aniso_U_22
_atom_site_aniso_U_33
_atom_site_aniso_U_12
_atom_site_aniso_U_13
_atom_site_aniso_U_23
Rb1 Rb1+ 0.0192(5) 0.0133(4) 0.0111(4) -0.0009(3) -0.0020(4) 0.0005(4)
Rb2 Rb1+ 0.0166(4) 0.0150(4) 0.0206(5) 0.0011(3) -0.0042(5) -0.0009(5)
Rb3 Rb1+ 0.0161(5) 0.0127(4) 0.0123(5) -0.0004(4) 0.0013(4) -0.0003(4)
Y1 Y3+ 0.0148(4) 0.0114(4) 0.0088(4) 0.0001(3) 0.0000(3) 0.0001(3)
Y2 Y3+ 0.0142(5) 0.0117(4) 0.0085(4) 0.0001(3) 0.0000(4) 0.0003(4)
O1 O2- 0.018(4) 0.011(3) 0.008(3) -0.001(3) 0.002(3) 0.000(3)
O2 O2- 0.020(4) 0.009(3) 0.016(3) -0.002(3) -0.011(3) 0.000(3)
O3 O2- 0.020(4) 0.013(3) 0.012(4) -0.002(3) 0.001(3) 0.001(3)
O4 O2- 0.019(4) 0.012(3) 0.004(3) -0.003(3) 0.001(3) -0.002(2)
O5 O2- 0.019(4) 0.011(3) 0.014(3) 0.001(3) 0.007(3) -0.002(3)
O6 O2- 0.014(3) 0.011(3) 0.012(3) 0.001(3) 0.000(3) 0.000(3)
O7 O2- 0.015(3) 0.013(3) 0.010(3) -0.004(3) 0.000(3) 0.003(3)
O8 O2- 0.012(3) 0.018(3) 0.009(3) -0.005(3) 0.004(2) -0.006(3)
O9 O2- 0.014(3) 0.015(3) 0.009(3) -0.004(3) 0.002(3) 0.001(3)
B1 B3+ 0.012(6) 0.015(5) 0.015(6) 0.000(4) 0.002(5) -0.004(5)
B2 B3+ 0.015(4) 0.019(4) 0.008(4) -0.001(3) 0.007(3) -0.003(3)
B3 B3+ 0.010(5) 0.012(5) 0.017(6) 0.000(4) 0.001(5) 0.001(4)
#End of TTdata_241126-ICSD