
#(C) 2020 by FIZ Karlsruhe - Leibniz Institute for Information Infrastructure.  All rights reserved.
data_242177-ICSD
_database_code_ICSD 242177
_audit_creation_date 2017-08-01
_chemical_name_common 'Barium diberyllium trifluoroborate'
_chemical_formula_structural 'Ba Be2 B O3 F3'
_chemical_formula_sum 'B1 Ba1 Be2 F3 O3'
_exptl_crystal_density_diffrn 3.83
_diffrn_ambient_temperature 153.
_citation_title

;
BaBe2BO3F3: a KBBF-type deep-ultraviolet nonlinear optical material with
reinforced [Be2BO3F2]inf layers and short phase-matching wavelength
;
loop_
_citation_id
_citation_journal_full
_citation_year
_citation_journal_volume
_citation_page_first
_citation_page_last
_citation_journal_id_ASTM
primary 'Chemistry of Materials' 2016 28 8871 8875 CMATEX
loop_
_citation_author_citation_id
_citation_author_name
primary 'Guo, Shu'
primary 'Jiang, Xingxing'
primary 'Liu, Lijuan'
primary 'Xia, Mingjun'
primary 'Fang, Zhi'
primary 'Wang, Xiaoyang'
primary 'Lin, Zheshuai'
primary 'Chen, Chuangtian'
_cell_length_a 7.6279(11)
_cell_length_b 7.6279(11)
_cell_length_c 13.990(3)
_cell_angle_alpha 90.
_cell_angle_beta 90.
_cell_angle_gamma 120.
_cell_volume 704.95
_cell_formula_units_Z 6
_space_group_name_H-M_alt 'P 63'
_space_group_IT_number 173
loop_
_space_group_symop_id
_space_group_symop_operation_xyz
1 'x-y, x, z+1/2'
2 'y, -x+y, z+1/2'
3 '-x, -y, z+1/2'
4 '-x+y, -x, z'
5 '-y, x-y, z'
6 'x, y, z'
loop_
_atom_type_symbol
_atom_type_oxidation_number
Ba2+ 2
O2- -2
F1- -1
B3+ 3
Be2+ 2
loop_
_atom_site_label
_atom_site_type_symbol
_atom_site_symmetry_multiplicity
_atom_site_Wyckoff_symbol
_atom_site_fract_x
_atom_site_fract_y
_atom_site_fract_z
_atom_site_U_iso_or_equiv
_atom_site_occupancy
Ba1 Ba2+ 6 c -0.00164(4) 0.32815(4) 0.6855(5) 0.00875(13) 1
O1 O2- 6 c 0.5626(5) 0.4350(5) 0.4184(3) 0.0124(14) 1
O2 O2- 6 c 0.2077(5) 0.1026(5) 0.4526(3) 0.0069(10) 1
O3 O2- 6 c 0.2306(5) 0.4600(5) 0.4357(4) 0.0084(7) 1
F1 F1- 2 b -0.3333 0.3333 0.7203(5) 0.0194(17) 1
F2 F1- 2 a 0. 0. 0.6360(5) 0.0129(13) 1
F3 F1- 2 b 0.3333 0.6667 0.7093(5) 0.0203(17) 1
F4 F1- 6 c 0.3805(5) 0.3739(5) 0.5826(3) 0.0170(8) 1
F5 F1- 6 c 0.2787(5) 0.2784(5) 0.7878(4) 0.0128(7) 1
B1 B3+ 2 a 0. 0. 0.4580(7) 0.0042(11) 1
B2 B3+ 2 b 0.3333 0.6667 0.4348(8) 0.0069(11) 1
B3 B3+ 2 b 0.6667 0.3333 0.4144(8) 0.0115(12) 1
Be1 Be2+ 6 c 0.3239(12) 0.3208(12) 0.8957(18) 0.006(4) 1
Be2 Be2+ 6 c 0.3440(10) 0.3429(10) 0.4745(18) 0.007(4) 1
loop_
_atom_site_aniso_label
_atom_site_aniso_type_symbol
_atom_site_aniso_U_11
_atom_site_aniso_U_22
_atom_site_aniso_U_33
_atom_site_aniso_U_12
_atom_site_aniso_U_13
_atom_site_aniso_U_23
Ba1 Ba2+ 0.00761(17) 0.00788(17) 0.01081(18) 0.00390(11) -0.00048(16) 0.0010(3)
O1 O2- 0.0054(17) 0.0048(17) 0.026(4) 0.0019(14) 0.0003(17) 0.0060(16)
O2 O2- 0.0081(16) 0.0063(15) 0.006(3) 0.0032(13) 0.0021(15) 0.0008(14)
O3 O2- 0.0059(16) 0.0079(16) 0.013(2) 0.0048(14) -0.0005(16) -0.0006(17)
F1 F1- 0.0047(15) 0.0047(15) 0.049(5) 0.0024(8) 0. 0.
F2 F1- 0.0105(17) 0.0105(17) 0.018(3) 0.0053(9) 0. 0.
F3 F1- 0.0083(15) 0.0083(15) 0.044(5) 0.0041(8) 0. 0.
F4 F1- 0.0203(16) 0.0175(16) 0.0062(19) 0.0043(14) -0.0030(17) -0.0004(15)
F5 F1- 0.0209(17) 0.0160(15) 0.0070(18) 0.0133(15) 0.0002(17) -0.0009(16)
B1 B3+ 0.0043(10) 0.0043(10) 0.0040(15) 0.0021(5) 0. 0.
B2 B3+ 0.0068(11) 0.0068(11) 0.0072(15) 0.0034(5) 0. 0.
B3 B3+ 0.0116(11) 0.0116(11) 0.0114(16) 0.0058(6) 0. 0.
Be1 Be2+ 0.006(4) 0.006(4) 0.006(4) 0.0033(19) 0.0009(9) -0.0006(10)
Be2 Be2+ 0.010(5) 0.010(5) 0.003(5) 0.005(3) -0.003(3) -0.002(3)
#End of TTdata_242177-ICSD