
#(C) 2020 by FIZ Karlsruhe - Leibniz Institute for Information Infrastructure.  All rights reserved.
data_243492-ICSD
_database_code_ICSD 243492
_audit_creation_date 2017-08-01
_chemical_name_common 'Cesium gallium ditin hexaselenide'
_chemical_formula_structural 'Cs Ga Sn2 Se6'
_chemical_formula_sum 'Cs1 Ga1 Se6 Sn2'
_chemical_name_structure_type Ba3-x(Ga,Ge)9S18
_exptl_crystal_density_diffrn 4.98
_diffrn_ambient_temperature 293.
_citation_title

;
Infrared SHG materials CsM3Se6 (M = Ga/Sn, In/Sn): phase matchability
controlled by dipole moment of the asymmetric building unit
;
loop_
_citation_id
_citation_journal_full
_citation_year
_citation_journal_volume
_citation_page_first
_citation_page_last
_citation_journal_id_ASTM
primary 'Chemistry of Materials' 2017 29 499 503 CMATEX
loop_
_citation_author_citation_id
_citation_author_name
primary 'Lin, Hua'
primary 'Chen, Ling'
primary 'Yu, Ju-Song'
primary 'Chen, Hong'
primary 'Wu, Li-Ming'
_cell_length_a 10.5180(8)
_cell_length_b 10.5180(8)
_cell_length_c 9.5385(12)
_cell_angle_alpha 90.
_cell_angle_beta 90.
_cell_angle_gamma 120.
_cell_volume 913.85
_cell_formula_units_Z 3
_space_group_name_H-M_alt 'R 3 H'
_space_group_IT_number 146
loop_
_space_group_symop_id
_space_group_symop_operation_xyz
1 '-x+y, -x, z'
2 '-y, x-y, z'
3 'x, y, z'
4 '-x+y+2/3, -x+1/3, z+1/3'
5 '-y+2/3, x-y+1/3, z+1/3'
6 'x+2/3, y+1/3, z+1/3'
7 '-x+y+1/3, -x+2/3, z+2/3'
8 '-y+1/3, x-y+2/3, z+2/3'
9 'x+1/3, y+2/3, z+2/3'
loop_
_atom_type_symbol
_atom_type_oxidation_number
Cs1+ 1
Ga3+ 3
Sn4+ 4
Se2- -2
loop_
_atom_site_label
_atom_site_type_symbol
_atom_site_symmetry_multiplicity
_atom_site_Wyckoff_symbol
_atom_site_fract_x
_atom_site_fract_y
_atom_site_fract_z
_atom_site_U_iso_or_equiv
_atom_site_occupancy
Cs1 Cs1+ 3 a 0. 0. 0.99906(6) 0.02627(17) 1
Ga1 Ga3+ 9 b 0.04260(4) 0.23120(4) 0.42230(7) 0.01333(12) 0.33
Sn1 Sn4+ 9 b 0.04260(4) 0.23120(4) 0.42230(7) 0.01333(12) 0.67
Se1 Se2- 9 b 0.24362(6) 0.19857(6) 0.32538(6) 0.01777(15) 1
Se2 Se2- 9 b 0.41650(6) 0.14308(6) 0.01554(5) 0.01747(15) 1
loop_
_atom_site_aniso_label
_atom_site_aniso_type_symbol
_atom_site_aniso_U_11
_atom_site_aniso_U_22
_atom_site_aniso_U_33
_atom_site_aniso_U_12
_atom_site_aniso_U_13
_atom_site_aniso_U_23
Cs1 Cs1+ 0.0285(2) 0.0285(2) 0.0219(3) 0.01423(12) 0. 0.
Ga1 Ga3+ 0.0183(3) 0.0153(2) 0.0076(2) 0.0093(2) -0.0003(2) -0.0014(2)
Sn1 Sn4+ 0.0183(3) 0.0153(2) 0.0076(2) 0.0093(2) -0.0003(2) -0.0014(2)
Se1 Se2- 0.0165(3) 0.0183(3) 0.0170(3) 0.0075(3) 0.0052(3) 0.0037(3)
Se2 Se2- 0.0278(3) 0.0162(3) 0.0095(3) 0.0119(3) -0.0024(2) -0.0030(2)
#End of TTdata_243492-ICSD