
#(C) 2020 by FIZ Karlsruhe - Leibniz Institute for Information Infrastructure.  All rights reserved.
data_243493-ICSD
_database_code_ICSD 243493
_audit_creation_date 2017-08-01
_chemical_name_common 'Cesium indium ditin hexaselenide'
_chemical_formula_structural 'Cs In Sn2 Se6'
_chemical_formula_sum 'Cs1 In1 Se6 Sn2'
_chemical_name_structure_type Ba3-x(Ga,Ge)9S18
_exptl_crystal_density_diffrn 5.02
_diffrn_ambient_temperature 293.
_citation_title

;
Infrared SHG materials CsM3Se6 (M = Ga/Sn, In/Sn): phase matchability
controlled by dipole moment of the asymmetric building unit
;
loop_
_citation_id
_citation_journal_full
_citation_year
_citation_journal_volume
_citation_page_first
_citation_page_last
_citation_journal_id_ASTM
primary 'Chemistry of Materials' 2017 29 499 503 CMATEX
loop_
_citation_author_citation_id
_citation_author_name
primary 'Lin, Hua'
primary 'Chen, Ling'
primary 'Yu, Ju-Song'
primary 'Chen, Hong'
primary 'Wu, Li-Ming'
_cell_length_a 10.6520(5)
_cell_length_b 10.6520(5)
_cell_length_c 9.6882(8)
_cell_angle_alpha 90.
_cell_angle_beta 90.
_cell_angle_gamma 120.
_cell_volume 951.99
_cell_formula_units_Z 3
_space_group_name_H-M_alt 'R 3 H'
_space_group_IT_number 146
loop_
_space_group_symop_id
_space_group_symop_operation_xyz
1 '-x+y, -x, z'
2 '-y, x-y, z'
3 'x, y, z'
4 '-x+y+2/3, -x+1/3, z+1/3'
5 '-y+2/3, x-y+1/3, z+1/3'
6 'x+2/3, y+1/3, z+1/3'
7 '-x+y+1/3, -x+2/3, z+2/3'
8 '-y+1/3, x-y+2/3, z+2/3'
9 'x+1/3, y+2/3, z+2/3'
loop_
_atom_type_symbol
_atom_type_oxidation_number
Cs1+ 1
In3+ 3
Sn4+ 4
Se2- -2
loop_
_atom_site_label
_atom_site_type_symbol
_atom_site_symmetry_multiplicity
_atom_site_Wyckoff_symbol
_atom_site_fract_x
_atom_site_fract_y
_atom_site_fract_z
_atom_site_U_iso_or_equiv
_atom_site_occupancy
Cs1 Cs1+ 3 a 0. 0. 0.00001(8) 0.02920(19) 1
In1 In3+ 9 b 0.04469(4) 0.23319(5) 0.42145(6) 0.01438(12) 0.33
Sn1 Sn4+ 9 b 0.04469(4) 0.23319(5) 0.42145(6) 0.01438(12) 0.67
Se1 Se2- 9 b 0.24614(7) 0.19887(7) 0.32135(8) 0.01954(17) 1
Se2 Se2- 9 b 0.41766(8) 0.14757(7) 0.01718(7) 0.01924(17) 1
loop_
_atom_site_aniso_label
_atom_site_aniso_type_symbol
_atom_site_aniso_U_11
_atom_site_aniso_U_22
_atom_site_aniso_U_33
_atom_site_aniso_U_12
_atom_site_aniso_U_13
_atom_site_aniso_U_23
Cs1 Cs1+ 0.0299(3) 0.0299(3) 0.0278(4) 0.01494(14) 0. 0.
In1 In3+ 0.0171(3) 0.0146(2) 0.0123(2) 0.0085(2) 0.0011(2) -0.0002(2)
Sn1 Sn4+ 0.0171(3) 0.0146(2) 0.0123(2) 0.0085(2) 0.0011(2) -0.0002(2)
Se1 Se2- 0.0184(3) 0.0174(4) 0.0242(4) 0.0100(3) 0.0071(3) 0.0046(3)
Se2 Se2- 0.0319(4) 0.0152(3) 0.0121(4) 0.0129(3) -0.0004(3) -0.0008(2)
#End of TTdata_243493-ICSD