
#(C) 2020 by FIZ Karlsruhe - Leibniz Institute for Information Infrastructure.  All rights reserved.
data_243552-ICSD
_database_code_ICSD 243552
_audit_creation_date 2017-08-01
_chemical_name_common 'Distrontium manganese(II) digermanium hexasulfide oxide'
_chemical_formula_structural 'Sr2 Zn Ge2 S6 O'
_chemical_formula_sum 'Ge2 O1 S6 Sr2 Zn1'
_chemical_name_structure_type Melilite#Ca2MgSi2O7
_exptl_crystal_density_diffrn 3.59
_diffrn_ambient_temperature 293.
_citation_title

;
Magnetic properties of the melilite-type oxysulfide Sr2MnGe2S6O: magnetic
interactions enhanced by anion substitution
;
loop_
_citation_id
_citation_journal_full
_citation_year
_citation_journal_volume
_citation_page_first
_citation_page_last
_citation_journal_id_ASTM
primary 'Inorganic Chemistry' 2017 56 2459 2466 INOCAJ
loop_
_citation_author_citation_id
_citation_author_name
primary 'Endo, Takashi'
primary 'Doi, Yoshihiro'
primary 'Wakeshima, Makoto'
primary 'Suzuki, Keita'
primary 'Matsuo, Yasutaka'
primary 'Tezuka, Keitaro'
primary 'Ohtsuki, Takuya'
primary 'Shan, Yue Jin'
primary 'Hinatsu, Yukio'
_cell_length_a 9.4311(2)
_cell_length_b 9.4311(2)
_cell_length_c 6.1845(1)
_cell_angle_alpha 90
_cell_angle_beta 90
_cell_angle_gamma 90
_cell_volume 550.08
_cell_formula_units_Z 2
_space_group_name_H-M_alt 'P -4 21 m'
_space_group_IT_number 113
loop_
_space_group_symop_id
_space_group_symop_operation_xyz
1 '-y+1/2, -x+1/2, z'
2 'y, -x, -z'
3 'y+1/2, x+1/2, z'
4 '-y, x, -z'
5 'x+1/2, -y+1/2, -z'
6 '-x, -y, z'
7 '-x+1/2, y+1/2, -z'
8 'x, y, z'
loop_
_atom_type_symbol
_atom_type_oxidation_number
Sr2+ 2
Zn2+ 2
Ge4+ 4
O2- -2
S2- -2
loop_
_atom_site_label
_atom_site_type_symbol
_atom_site_symmetry_multiplicity
_atom_site_Wyckoff_symbol
_atom_site_fract_x
_atom_site_fract_y
_atom_site_fract_z
_atom_site_U_iso_or_equiv
_atom_site_occupancy
Sr1 Sr2+ 4 e 0.15853(8) 0.65853(8) 0.5009(2) 0.0149(4) 1
Zn1 Zn2+ 2 a 0 0 0 0.0157(7) 1
Ge1 Ge4+ 4 e 0.6277(1) 0.1277(1) 0.9225(2) 0.0116(5) 1
O1 O2- 2 c 0 0.5 0.197(2) 0.0124(5) 1
S1 S2- 4 e 0.6350(2) 0.1350(2) 0.2680(4) 0.0124(5) 1
S2 S2- 8 f 0.0631(2) 0.1764(2) 0.2446(4) 0.0124(5) 1
#End of TTdata_243552-ICSD