
#(C) 2020 by FIZ Karlsruhe - Leibniz Institute for Information Infrastructure.  All rights reserved.
data_243562-ICSD
_database_code_ICSD 243562
_audit_creation_date 2017-08-01
_chemical_name_common 'Disodium tetraindium digallium decaselenide'
_chemical_formula_structural 'Na2 In4 Ga2 Se10'
_chemical_formula_sum 'Ga2 In4 Na2 Se10'
_exptl_crystal_density_diffrn 4.88
_diffrn_ambient_temperature 293.
_citation_title

;
Superpolyhedron-built second harmonic generation materials exhibit large
mid-infrared conversion efficiencies and high laser-induced damage thresholds
;
loop_
_citation_id
_citation_journal_full
_citation_year
_citation_journal_volume
_citation_page_first
_citation_page_last
_citation_journal_id_ASTM
primary 'Chemistry of Materials' 2017 29 1796 1804 CMATEX
loop_
_citation_author_citation_id
_citation_author_name
primary 'Li, Shu-Fang'
primary 'Jiang, Xiao-Ming'
primary 'Liu, Bin-Wen'
primary 'Yan, Dong'
primary 'Lin, Chen-Sheng'
primary 'Zeng, Hui-Yi'
primary 'Guo, Guo-Cong'
_cell_length_a 14.100(7)
_cell_length_b 14.100(7)
_cell_length_c 17.010(6)
_cell_angle_alpha 90.
_cell_angle_beta 90.
_cell_angle_gamma 120.
_cell_volume 2928.69
_cell_formula_units_Z 6
_space_group_name_H-M_alt 'R 3 2 H'
_space_group_IT_number 155
loop_
_space_group_symop_id
_space_group_symop_operation_xyz
1 '-x, -x+y, -z'
2 'x-y, -y, -z'
3 'y, x, -z'
4 '-x+y, -x, z'
5 '-y, x-y, z'
6 'x, y, z'
7 '-x+2/3, -x+y+1/3, -z+1/3'
8 'x-y+2/3, -y+1/3, -z+1/3'
9 'y+2/3, x+1/3, -z+1/3'
10 '-x+y+2/3, -x+1/3, z+1/3'
11 '-y+2/3, x-y+1/3, z+1/3'
12 'x+2/3, y+1/3, z+1/3'
13 '-x+1/3, -x+y+2/3, -z+2/3'
14 'x-y+1/3, -y+2/3, -z+2/3'
15 'y+1/3, x+2/3, -z+2/3'
16 '-x+y+1/3, -x+2/3, z+2/3'
17 '-y+1/3, x-y+2/3, z+2/3'
18 'x+1/3, y+2/3, z+2/3'
loop_
_atom_type_symbol
_atom_type_oxidation_number
Ga3+ 3
In3+ 3
Se2- -2
Na1+ 1
loop_
_atom_site_label
_atom_site_type_symbol
_atom_site_symmetry_multiplicity
_atom_site_Wyckoff_symbol
_atom_site_fract_x
_atom_site_fract_y
_atom_site_fract_z
_atom_site_U_iso_or_equiv
_atom_site_occupancy
Ga1 Ga3+ 18 f 0.75182(4) 0.07466(4) 0.41799(3) 0.01591(12) 0.67
In1 In3+ 18 f 0.75182(4) 0.07466(4) 0.41799(3) 0.01591(12) 0.33
In2 In3+ 18 f 0.58870(3) 0.14362(3) 0.56754(2) 0.01689(10) 1
Se1 Se2- 6 c 0.6667 0.3333 0.49767(5) 0.0147(2) 1
Se2 Se2- 18 f 0.76613(5) 0.12972(4) 0.56024(3) 0.01694(13) 1
Se3 Se2- 9 e 0.41309(6) 0. 0.5 0.01826(19) 1
Se4 Se2- 9 d 0.6667 0.15054(6) 0.3333 0.02090(19) 1
Se5 Se2- 18 f 0.53911(5) 0.14268(5) 0.71310(3) 0.02082(15) 1
Na1 Na1+ 3 b 0.6667 0.3333 0.8333 0.0345(15) 1
Na2 Na1+ 9 d 0.3333 -0.0719(3) 0.6667 0.0460(11) 1
loop_
_atom_site_aniso_label
_atom_site_aniso_type_symbol
_atom_site_aniso_U_11
_atom_site_aniso_U_22
_atom_site_aniso_U_33
_atom_site_aniso_U_12
_atom_site_aniso_U_13
_atom_site_aniso_U_23
Ga1 Ga3+ 0.0158(3) 0.0180(3) 0.0133(2) 0.0080(2) 0.0020(2) 0.0024(2)
In1 In3+ 0.0158(3) 0.0180(3) 0.0133(2) 0.0080(2) 0.0020(2) 0.0024(2)
In2 In3+ 0.0170(2) 0.0148(2) 0.01806(19) 0.00737(18) 0.00053(17) 0.00073(17)
Se1 Se2- 0.0145(3) 0.0145(3) 0.0152(5) 0.00723(16) 0. 0.
Se2 Se2- 0.0161(3) 0.0155(3) 0.0192(3) 0.0079(3) -0.0012(2) -0.0018(2)
Se3 Se2- 0.0188(3) 0.0203(5) 0.0162(4) 0.0101(2) -0.00121(18) -0.0024(4)
Se4 Se2- 0.0192(4) 0.0212(3) 0.0216(4) 0.0096(2) -0.0004(4) -0.00018(18)
Se5 Se2- 0.0264(4) 0.0201(3) 0.0172(3) 0.0127(3) 0.0012(2) -0.0026(2)
Na1 Na1+ 0.031(2) 0.031(2) 0.042(4) 0.0155(12) 0. 0.
Na2 Na1+ 0.020(2) 0.068(2) 0.033(2) 0.0101(10) 0.0046(17) 0.0023(9)
#End of TTdata_243562-ICSD