
#(C) 2020 by FIZ Karlsruhe - Leibniz Institute for Information Infrastructure.  All rights reserved.
data_243563-ICSD
_database_code_ICSD 243563
_audit_creation_date 2017-08-01
_chemical_name_common 'Sodium triindium pentaselenide'
_chemical_formula_structural 'Na In3 Se5'
_chemical_formula_sum 'In3 Na1 Se5'
_exptl_crystal_density_diffrn 5.
_diffrn_ambient_temperature 293.
_citation_title

;
Superpolyhedron-built second harmonic generation materials exhibit large
mid-infrared conversion efficiencies and high laser-induced damage thresholds
;
loop_
_citation_id
_citation_journal_full
_citation_year
_citation_journal_volume
_citation_page_first
_citation_page_last
_citation_journal_id_ASTM
primary 'Chemistry of Materials' 2017 29 1796 1804 CMATEX
loop_
_citation_author_citation_id
_citation_author_name
primary 'Li, Shu-Fang'
primary 'Jiang, Xiao-Ming'
primary 'Liu, Bin-Wen'
primary 'Yan, Dong'
primary 'Lin, Chen-Sheng'
primary 'Zeng, Hui-Yi'
primary 'Guo, Guo-Cong'
_cell_length_a 24.5815(6)
_cell_length_b 24.5815(6)
_cell_length_c 17.4269(8)
_cell_angle_alpha 90.
_cell_angle_beta 90.
_cell_angle_gamma 120.
_cell_volume 9119.43
_cell_formula_units_Z 36
_space_group_name_H-M_alt 'P 32'
_space_group_IT_number 145
loop_
_space_group_symop_id
_space_group_symop_operation_xyz
1 '-x+y, -x, z+1/3'
2 '-y, x-y, z+2/3'
3 'x, y, z'
loop_
_atom_type_symbol
_atom_type_oxidation_number
In3+ 3
Se2- -2
Na1+ 1
loop_
_atom_site_label
_atom_site_type_symbol
_atom_site_symmetry_multiplicity
_atom_site_Wyckoff_symbol
_atom_site_fract_x
_atom_site_fract_y
_atom_site_fract_z
_atom_site_U_iso_or_equiv
_atom_site_occupancy
In1 In3+ 3 a 0.11992(5) 0.46410(5) 0.19954(6) 0.0231(3) 1
In2 In3+ 3 a 0.26241(5) 0.44971(5) 0.27661(6) 0.0232(3) 1
In3 In3+ 3 a 0.12756(5) 0.62383(5) 0.25393(6) 0.0224(3) 1
In4 In3+ 3 a -0.13449(5) 0.54722(5) 0.04628(7) 0.0228(3) 1
In5 In3+ 3 a -0.00660(5) 0.46475(5) 0.31404(6) 0.0222(3) 1
In6 In3+ 3 a 0.38271(5) 0.60603(5) 0.37353(6) 0.0226(3) 1
In7 In3+ 3 a 0.00345(5) 0.52330(5) 0.09910(6) 0.0223(2) 1
In8 In3+ 3 a -0.14262(5) 0.46411(5) 0.62244(7) 0.0247(3) 1
In9 In3+ 3 a -0.16156(5) 0.44450(5) 0.40614(6) 0.0235(3) 1
In10 In3+ 3 a -0.16408(5) 0.41528(5) 0.19604(6) 0.0228(3) 1
In11 In3+ 3 a 0.59819(5) 0.50001(5) 0.42053(6) 0.0238(3) 1
In12 In3+ 3 a 0.21960(5) -0.05365(5) -0.13466(6) 0.0223(3) 1
In13 In3+ 3 a 0.45223(5) 0.49709(5) 0.32011(6) 0.0228(3) 1
In14 In3+ 3 a -0.17020(5) 0.28951(5) 0.32071(6) 0.0228(3) 1
In15 In3+ 3 a 0.21754(5) 0.27238(5) 0.52447(6) 0.0233(3) 1
In16 In3+ 3 a 0.22700(5) 0.49684(5) -0.17062(6) 0.0235(3) 1
In17 In3+ 3 a -0.11528(5) 0.40415(5) -0.02788(6) 0.0231(3) 1
In18 In3+ 3 a 0.21697(5) 0.39497(5) 0.64798(7) 0.0245(3) 1
In19 In3+ 3 a 0.32523(6) 0.46642(5) 0.48319(6) 0.0244(3) 1
In20 In3+ 3 a 0.14263(5) 0.32768(5) 0.14496(6) 0.0230(3) 1
In21 In3+ 3 a -0.10735(5) 0.27265(5) -0.13562(6) 0.0226(3) 1
In22 In3+ 3 a -0.26482(5) 0.28212(5) -0.13935(6) 0.0223(3) 1
In23 In3+ 3 a 0.24981(5) 0.49529(5) 0.04567(6) 0.0218(3) 1
In24 In3+ 3 a 0.38239(5) 0.26615(6) 0.18943(6) 0.0246(3) 1
In25 In3+ 3 a -0.19246(5) 0.13374(5) 0.25834(6) 0.0221(3) 1
In26 In3+ 3 a -0.11124(5) -0.05330(5) 0.19519(6) 0.0238(3) 1
In27 In3+ 3 a -0.13683(5) 0.18727(5) 0.47958(6) 0.0239(3) 1
In28 In3+ 3 a 0.53056(5) 0.66762(5) 0.26158(6) 0.0243(3) 1
In29 In3+ 3 a 0.19182(6) 0.18587(6) 0.14317(7) 0.0270(3) 1
In30 In3+ 3 a 0.19735(6) 0.33240(5) -0.06884(6) 0.0249(3) 1
In31 In3+ 3 a -0.08548(6) 0.07993(6) 0.36512(7) 0.0253(3) 1
In32 In3+ 3 a 0.24459(6) 0.08101(6) 0.02746(7) 0.0279(3) 1
In33 In3+ 3 a 0.13868(6) 0.14030(6) -0.07315(7) 0.0272(3) 1
In34 In3+ 3 a -0.14528(17) 0.11358(17) -0.0282(2) 0.0270(8) 0.35
In35 In3+ 3 a 0.03977(19) 0.20703(17) -0.0257(2) 0.0287(9) 0.33
In36 In3+ 3 a -0.0524(2) 0.11428(19) 0.1604(2) 0.0251(8) 0.33
In37 In3+ 3 a -0.16022(8) 0.09434(9) 0.02233(12) 0.0233(4) 0.65
In38 In3+ 3 a 0.00887(9) 0.20070(8) -0.06730(11) 0.0242(4) 0.67
In39 In3+ 3 a -0.00946(10) 0.13721(9) 0.14986(10) 0.0239(4) 0.67
Se1 Se2- 3 a 0.14333(7) 0.08724(7) 0.05497(9) 0.0189(3) 1
Se2 Se2- 3 a -0.19261(7) 0.42408(7) 0.05537(9) 0.0203(3) 1
Se3 Se2- 3 a -0.05297(7) 0.19241(7) 0.05916(9) 0.0196(3) 1
Se4 Se2- 3 a 0.26873(7) 0.51249(7) 0.39992(9) 0.0215(4) 1
Se5 Se2- 3 a -0.18612(7) 0.08733(7) 0.39190(9) 0.0203(3) 1
Se6 Se2- 3 a 0.47770(7) 0.42132(7) 0.39669(9) 0.0215(3) 1
Se7 Se2- 3 a 0.24559(7) 0.38682(7) 0.06207(9) 0.0203(3) 1
Se8 Se2- 3 a -0.09537(7) 0.38805(7) 0.40504(9) 0.0200(3) 1
Se9 Se2- 3 a 0.24260(7) 0.52449(7) 0.18784(9) 0.0199(3) 1
Se10 Se2- 3 a -0.18020(7) 0.39960(7) -0.14888(9) 0.0207(3) 1
Se11 Se2- 3 a 0.14361(7) 0.42165(7) -0.27142(9) 0.0211(3) 1
Se12 Se2- 3 a 0.33718(8) 0.16678(8) -0.04449(9) 0.0272(4) 1
Se13 Se2- 3 a 0.16888(8) 0.33715(8) 0.28795(9) 0.0244(4) 1
Se14 Se2- 3 a -0.21919(7) 0.22504(7) 0.44615(9) 0.0220(4) 1
Se15 Se2- 3 a -0.24836(8) 0.45069(8) 0.66541(9) 0.0259(4) 1
Se16 Se2- 3 a -0.00369(8) 0.49717(8) -0.04418(9) 0.0250(4) 1
Se17 Se2- 3 a 0.44180(7) 0.55431(7) 0.44153(9) 0.0214(4) 1
Se18 Se2- 3 a 0.14700(7) 0.72264(7) 0.17319(9) 0.0209(4) 1
Se19 Se2- 3 a 0.15478(7) 0.05603(7) -0.15265(9) 0.0214(3) 1
Se20 Se2- 3 a 0.22295(8) 0.29541(8) 0.66797(9) 0.0257(4) 1
Se21 Se2- 3 a 0.17244(8) 0.50223(8) -0.04670(9) 0.0248(4) 1
Se22 Se2- 3 a -0.05597(7) 0.41901(7) 0.17841(9) 0.0221(4) 1
Se23 Se2- 3 a 0.22085(8) 0.64034(8) 0.33663(9) 0.0250(4) 1
Se24 Se2- 3 a 0.39104(7) 0.69665(8) 0.45448(9) 0.0235(4) 1
Se25 Se2- 3 a -0.10711(8) 0.30614(8) 0.00347(9) 0.0265(4) 1
Se26 Se2- 3 a 0.32972(8) 0.48619(8) 0.62715(9) 0.0244(4) 1
Se27 Se2- 3 a 0.11991(7) 0.55963(7) 0.13088(9) 0.0204(4) 1
Se28 Se2- 3 a -0.02917(7) 0.28382(8) 0.45468(9) 0.0246(4) 1
Se29 Se2- 3 a 0.02778(8) 0.58057(8) 0.33616(9) 0.0251(4) 1
Se30 Se2- 3 a 0.63421(8) 0.61289(8) 0.45638(9) 0.0255(4) 1
Se31 Se2- 3 a 0.22810(8) -0.02896(8) 0.00842(9) 0.0269(4) 1
Se32 Se2- 3 a -0.10180(8) -0.02962(8) 0.33875(9) 0.0261(4) 1
Se33 Se2- 3 a 0.08545(8) 0.44644(8) 0.33978(9) 0.0247(4) 1
Se34 Se2- 3 a 0.16832(8) 0.16943(8) 0.28733(9) 0.0257(4) 1
Se35 Se2- 3 a 0.10771(7) 0.21971(7) 0.45797(9) 0.0194(3) 1
Se36 Se2- 3 a -0.21396(7) 0.22511(7) -0.21216(9) 0.0214(4) 1
Se37 Se2- 3 a -0.08425(7) 0.52998(7) 0.50356(9) 0.0216(4) 1
Se38 Se2- 3 a -0.27199(8) 0.36778(8) 0.45533(10) 0.0262(4) 1
Se39 Se2- 3 a 0.41661(8) 0.64001(8) 0.23456(9) 0.0240(4) 1
Se40 Se2- 3 a -0.17336(8) 0.05870(8) 0.17012(9) 0.0263(4) 1
Se41 Se2- 3 a 0.05976(8) 0.36061(8) 0.12427(9) 0.0258(4) 1
Se42 Se2- 3 a -0.16773(8) 0.49728(8) 0.28268(9) 0.0258(4) 1
Se43 Se2- 3 a -0.25197(8) 0.11115(8) 0.00088(10) 0.0279(4) 1
Se44 Se2- 3 a 0.15454(7) 0.38698(7) 0.51723(9) 0.0213(3) 1
Se45 Se2- 3 a 0.10562(8) 0.21478(8) 0.09497(10) 0.0272(4) 1
Se46 Se2- 3 a 0.00430(8) 0.16780(8) 0.28980(9) 0.0294(4) 1
Se47 Se2- 3 a 0.30000(8) 0.27719(8) 0.11251(10) 0.0278(4) 1
Se48 Se2- 3 a 0.31029(8) 0.35836(8) 0.44964(9) 0.0259(4) 1
Se49 Se2- 3 a -0.15745(8) 0.35241(8) 0.62740(10) 0.0277(4) 1
Se50 Se2- 3 a -0.02969(8) 0.60594(8) 0.11923(9) 0.0250(4) 1
Se51 Se2- 3 a 0.22432(8) 0.24924(8) -0.11321(10) 0.0270(4) 1
Se52 Se2- 3 a -0.11369(8) 0.24927(8) 0.23217(9) 0.0244(4) 1
Se53 Se2- 3 a -0.09136(8) 0.17641(8) -0.15170(9) 0.0261(4) 1
Se54 Se2- 3 a 0.02846(8) 0.11497(8) -0.11344(9) 0.0258(4) 1
Se55 Se2- 3 a -0.01998(8) 0.03211(8) 0.11898(10) 0.0260(4) 1
Se56 Se2- 3 a -0.24802(8) 0.30506(8) 0.23841(9) 0.0256(4) 1
Se57 Se2- 3 a -0.11675(8) 0.58036(8) -0.09584(9) 0.0245(4) 1
Se58 Se2- 3 a 0.54237(8) 0.57300(8) 0.23074(9) 0.0253(4) 1
Se59 Se2- 3 a 0.08833(8) 0.31071(8) -0.10783(10) 0.0282(4) 1
Se60 Se2- 3 a 0.35654(8) 0.44060(8) 0.23080(9) 0.0254(4) 1
Na1 Na1+ 3 a 0.1197(3) 0.5714(3) 0.4539(4) 0.0438(19) 1
Na2 Na1+ 3 a 0.7785(4) 0.2293(4) 0.1109(5) 0.053(2) 1
Na3 Na1+ 3 a 0.2774(3) 0.3096(3) 0.2880(4) 0.0385(17) 1
Na4 Na1+ 3 a 0.0198(4) 0.3038(3) 0.2933(4) 0.046(2) 1
Na5 Na1+ 3 a 0.0395(3) 0.3981(3) -0.0398(4) 0.0428(19) 1
Na6 Na1+ 3 a 0.3661(3) 0.3828(3) 0.6177(4) 0.0414(18) 1
Na7 Na1+ 3 a -0.0574(4) 0.6357(4) 0.2824(4) 0.048(2) 1
Na8 Na1+ 3 a -0.2972(4) 0.3099(3) 0.6319(4) 0.048(2) 1
Na9 Na1+ 3 a 0.1083(4) 0.2202(4) 0.7625(4) 0.049(2) 1
Na10 Na1+ 3 a 0.0433(3) 0.0549(3) 0.2890(4) 0.0436(19) 1
Na11 Na1+ 3 a -0.0546(4) 0.3224(4) 0.6171(4) 0.049(2) 1
Na12 Na1+ 3 a 0.3775(4) 0.7352(4) 0.2813(5) 0.052(2) 1
loop_
_atom_site_aniso_label
_atom_site_aniso_type_symbol
_atom_site_aniso_U_11
_atom_site_aniso_U_22
_atom_site_aniso_U_33
_atom_site_aniso_U_12
_atom_site_aniso_U_13
_atom_site_aniso_U_23
In1 In3+ 0.0212(6) 0.0221(6) 0.0277(6) 0.0120(5) 0.0031(5) 0.0009(5)
In2 In3+ 0.0210(6) 0.0222(6) 0.0265(6) 0.0110(5) -0.0034(5) -0.0033(5)
In3 In3+ 0.0206(6) 0.0174(6) 0.0245(6) 0.0061(5) -0.0013(5) -0.0020(5)
In4 In3+ 0.0208(6) 0.0229(6) 0.0271(6) 0.0128(5) 0.0009(5) 0.0034(5)
In5 In3+ 0.0175(6) 0.0198(6) 0.0263(6) 0.0070(5) 0.0015(5) 0.0004(5)
In6 In3+ 0.0234(6) 0.0174(6) 0.0259(6) 0.0093(5) 0.0018(5) 0.0008(5)
In7 In3+ 0.0217(6) 0.0224(6) 0.0247(6) 0.0124(5) -0.0022(5) 0.0000(5)
In8 In3+ 0.0214(6) 0.0232(7) 0.0288(6) 0.0106(5) -0.0003(5) 0.0041(5)
In9 In3+ 0.0223(6) 0.0245(6) 0.0246(6) 0.0125(5) 0.0018(5) -0.0013(5)
In10 In3+ 0.0231(6) 0.0231(6) 0.0228(6) 0.0120(5) 0.0011(5) 0.0016(5)
In11 In3+ 0.0234(6) 0.0226(6) 0.0238(6) 0.0104(5) -0.0040(5) -0.0017(5)
In12 In3+ 0.0182(6) 0.0184(6) 0.0273(6) 0.0069(5) -0.0009(5) -0.0001(5)
In13 In3+ 0.0197(6) 0.0220(6) 0.0279(6) 0.0112(5) -0.0005(5) 0.0012(5)
In14 In3+ 0.0236(6) 0.0183(6) 0.0263(6) 0.0102(5) 0.0014(5) 0.0017(5)
In15 In3+ 0.0196(6) 0.0195(6) 0.0296(6) 0.0089(5) -0.0012(5) -0.0029(5)
In16 In3+ 0.0260(7) 0.0212(6) 0.0229(6) 0.0116(5) -0.0008(5) 0.0007(5)
In17 In3+ 0.0221(6) 0.0204(6) 0.0266(6) 0.0106(5) -0.0019(5) -0.0041(5)
In18 In3+ 0.0230(6) 0.0224(6) 0.0304(6) 0.0131(5) 0.0032(5) -0.0006(5)
In19 In3+ 0.0299(7) 0.0205(6) 0.0220(6) 0.0119(6) 0.0007(5) 0.0014(5)
In20 In3+ 0.0217(6) 0.0198(6) 0.0268(6) 0.0098(5) 0.0006(5) -0.0012(5)
In21 In3+ 0.0226(6) 0.0190(6) 0.0269(6) 0.0110(5) -0.0022(5) -0.0016(5)
In22 In3+ 0.0182(6) 0.0187(6) 0.0278(6) 0.0075(5) 0.0002(5) 0.0003(5)
In23 In3+ 0.0210(6) 0.0212(6) 0.0232(6) 0.0105(5) 0.0014(5) 0.0018(5)
In24 In3+ 0.0197(6) 0.0254(7) 0.0312(7) 0.0130(5) 0.0002(5) 0.0000(5)
In25 In3+ 0.0223(6) 0.0185(6) 0.0267(6) 0.0110(5) -0.0002(5) 0.0006(5)
In26 In3+ 0.0188(6) 0.0226(6) 0.0271(6) 0.0081(5) 0.0002(5) -0.0026(5)
In27 In3+ 0.0205(6) 0.0240(7) 0.0232(6) 0.0081(5) -0.0005(5) -0.0023(5)
In28 In3+ 0.0209(6) 0.0198(6) 0.0296(7) 0.0083(5) 0.0008(5) -0.0012(5)
In29 In3+ 0.0231(7) 0.0238(7) 0.0289(7) 0.0079(6) -0.0020(5) -0.0053(5)
In30 In3+ 0.0248(7) 0.0208(6) 0.0285(7) 0.0110(5) -0.0006(5) -0.0016(5)
In31 In3+ 0.0257(7) 0.0251(7) 0.0283(7) 0.0152(6) 0.0018(5) 0.0000(5)
In32 In3+ 0.0264(7) 0.0263(7) 0.0337(7) 0.0154(6) 0.0063(5) 0.0010(5)
In33 In3+ 0.0281(7) 0.0229(7) 0.0304(7) 0.0126(6) -0.0043(5) 0.0027(5)
In34 In3+ 0.0190(19) 0.022(2) 0.042(2) 0.0114(16) -0.0127(17) -0.0084(18)
In35 In3+ 0.023(2) 0.023(2) 0.035(2) 0.0075(17) 0.0099(18) -0.0029(17)
In36 In3+ 0.034(2) 0.025(2) 0.021(2) 0.019(2) 0.0025(18) 0.0038(16)
In37 In3+ 0.0186(10) 0.0228(10) 0.0295(11) 0.0109(9) -0.0049(8) -0.0057(9)
In38 In3+ 0.0213(10) 0.0233(10) 0.0281(10) 0.0112(9) 0.0055(9) 0.0021(8)
In39 In3+ 0.0301(12) 0.0212(10) 0.0213(10) 0.0137(10) -0.0020(9) -0.0001(8)
Se1 Se2- 0.0162(8) 0.0168(8) 0.0223(8) 0.0072(7) -0.0006(6) -0.0004(6)
Se2 Se2- 0.0186(8) 0.0198(9) 0.0218(8) 0.0090(7) -0.0003(7) -0.0010(7)
Se3 Se2- 0.0161(8) 0.0185(8) 0.0234(8) 0.0080(7) -0.0005(7) 0.0013(7)
Se4 Se2- 0.0195(9) 0.0197(9) 0.0239(9) 0.0089(7) 0.0011(7) -0.0001(7)
Se5 Se2- 0.0183(8) 0.0211(9) 0.0218(8) 0.0102(7) -0.0022(7) 0.0004(7)
Se6 Se2- 0.0185(9) 0.0207(9) 0.0266(9) 0.0107(7) 0.0004(7) 0.0016(7)
Se7 Se2- 0.0208(9) 0.0196(8) 0.0210(8) 0.0104(7) 0.0009(7) 0.0010(7)
Se8 Se2- 0.0195(8) 0.0158(8) 0.0240(9) 0.0084(7) 0.0016(7) 0.0021(6)
Se9 Se2- 0.0183(8) 0.0191(8) 0.0210(8) 0.0084(7) -0.0002(6) 0.0005(7)
Se10 Se2- 0.0192(9) 0.0204(9) 0.0236(9) 0.0106(7) 0.0002(7) 0.0013(7)
Se11 Se2- 0.0184(9) 0.0236(9) 0.0217(8) 0.0108(7) -0.0003(7) -0.0007(7)
Se12 Se2- 0.0266(10) 0.0266(10) 0.0212(9) 0.0080(8) 0.0005(7) -0.0013(7)
Se13 Se2- 0.0226(9) 0.0236(9) 0.0221(9) 0.0078(8) -0.0008(7) 0.0008(7)
Se14 Se2- 0.0192(9) 0.0195(9) 0.0244(9) 0.0074(7) -0.0006(7) 0.0002(7)
Se15 Se2- 0.0236(9) 0.0307(10) 0.0250(9) 0.0149(8) -0.0011(7) -0.0018(7)
Se16 Se2- 0.0245(9) 0.0215(9) 0.0230(9) 0.0069(8) -0.0009(7) -0.0022(7)
Se17 Se2- 0.0213(9) 0.0200(9) 0.0228(9) 0.0101(7) -0.0026(7) -0.0012(7)
Se18 Se2- 0.0196(9) 0.0214(9) 0.0235(9) 0.0116(7) 0.0010(7) 0.0005(7)
Se19 Se2- 0.0217(9) 0.0193(9) 0.0225(8) 0.0096(7) -0.0001(7) 0.0026(7)
Se20 Se2- 0.0294(10) 0.0241(9) 0.0269(9) 0.0157(8) -0.0001(7) 0.0007(7)
Se21 Se2- 0.0224(9) 0.0304(10) 0.0231(9) 0.0143(8) -0.0013(7) -0.0011(7)
Se22 Se2- 0.0213(9) 0.0203(9) 0.0240(9) 0.0099(7) 0.0005(7) 0.0005(7)
Se23 Se2- 0.0250(9) 0.0221(9) 0.0297(9) 0.0132(8) -0.0029(7) -0.0043(7)
Se24 Se2- 0.0198(9) 0.0222(9) 0.0292(9) 0.0110(8) -0.0021(7) -0.0063(7)
Se25 Se2- 0.0327(10) 0.0243(9) 0.0257(9) 0.0166(8) -0.0005(7) 0.0007(7)
Se26 Se2- 0.0217(9) 0.0253(9) 0.0234(9) 0.0097(8) -0.0016(7) -0.0010(7)
Se27 Se2- 0.0180(8) 0.0213(9) 0.0229(9) 0.0106(7) -0.0018(7) -0.0013(7)
Se28 Se2- 0.0166(9) 0.0249(9) 0.0298(9) 0.0086(7) 0.0008(7) 0.0061(7)
Se29 Se2- 0.0223(9) 0.0214(9) 0.0313(9) 0.0108(8) 0.0042(7) 0.0001(7)
Se30 Se2- 0.0246(9) 0.0205(9) 0.0345(10) 0.0135(8) -0.0048(7) -0.0027(7)
Se31 Se2- 0.0349(10) 0.0259(10) 0.0240(9) 0.0183(8) 0.0021(8) -0.0002(7)
Se32 Se2- 0.0335(10) 0.0232(9) 0.0248(9) 0.0167(8) -0.0006(8) -0.0015(7)
Se33 Se2- 0.0229(9) 0.0299(10) 0.0245(9) 0.0158(8) 0.0020(7) 0.0021(7)
Se34 Se2- 0.0225(9) 0.0297(10) 0.0260(9) 0.0138(8) 0.0005(7) 0.0013(7)
Se35 Se2- 0.0179(8) 0.0180(8) 0.0229(8) 0.0093(7) -0.0008(6) 0.0001(6)
Se36 Se2- 0.0198(9) 0.0183(8) 0.0264(9) 0.0098(7) -0.0004(7) -0.0008(7)
Se37 Se2- 0.0192(9) 0.0191(9) 0.0252(9) 0.0085(7) -0.0004(7) 0.0004(7)
Se38 Se2- 0.0243(9) 0.0201(9) 0.0333(9) 0.0104(8) 0.0045(7) -0.0008(7)
Se39 Se2- 0.0229(9) 0.0262(9) 0.0233(9) 0.0127(8) 0.0002(7) 0.0006(7)
Se40 Se2- 0.0256(9) 0.0188(9) 0.0270(9) 0.0055(8) 0.0064(7) -0.0028(7)
Se41 Se2- 0.0235(9) 0.0243(9) 0.0312(9) 0.0131(8) -0.0041(7) -0.0021(7)
Se42 Se2- 0.0342(10) 0.0229(9) 0.0241(9) 0.0170(8) 0.0000(7) 0.0000(7)
Se43 Se2- 0.0268(10) 0.0299(10) 0.0326(10) 0.0184(8) -0.0060(7) -0.0033(8)
Se44 Se2- 0.0201(9) 0.0171(8) 0.0238(9) 0.0071(7) 0.0016(7) -0.0003(7)
Se45 Se2- 0.0212(9) 0.0182(9) 0.0420(10) 0.0098(8) -0.0045(8) -0.0043(7)
Se46 Se2- 0.0324(10) 0.0294(10) 0.0231(9) 0.0131(9) 0.0023(7) 0.0001(7)
Se47 Se2- 0.0202(9) 0.0263(10) 0.0344(10) 0.0099(8) -0.0009(7) 0.0055(8)
Se48 Se2- 0.0260(9) 0.0203(9) 0.0291(9) 0.0099(8) 0.0058(7) -0.0006(7)
Se49 Se2- 0.0285(10) 0.0243(9) 0.0311(10) 0.0138(8) -0.0033(8) -0.0028(7)
Se50 Se2- 0.0244(9) 0.0226(9) 0.0300(9) 0.0133(8) -0.0044(7) -0.0051(7)
Se51 Se2- 0.0253(10) 0.0189(9) 0.0361(10) 0.0106(8) 0.0053(8) 0.0002(7)
Se52 Se2- 0.0226(9) 0.0181(9) 0.0318(9) 0.0097(7) 0.0032(7) 0.0001(7)
Se53 Se2- 0.0372(10) 0.0264(9) 0.0222(9) 0.0216(8) -0.0023(7) -0.0005(7)
Se54 Se2- 0.0226(9) 0.0228(9) 0.0332(10) 0.0123(8) -0.0006(7) -0.0012(7)
Se55 Se2- 0.0250(9) 0.0212(9) 0.0312(9) 0.0110(8) 0.0029(7) -0.0002(7)
Se56 Se2- 0.0212(9) 0.0216(9) 0.0320(10) 0.0092(8) -0.0017(7) 0.0036(7)
Se57 Se2- 0.0291(10) 0.0235(9) 0.0240(9) 0.0156(8) -0.0001(7) 0.0000(7)
Se58 Se2- 0.0236(9) 0.0220(9) 0.0314(9) 0.0124(8) 0.0055(7) 0.0003(7)
Se59 Se2- 0.0224(9) 0.0216(9) 0.0366(10) 0.0081(8) 0.0014(8) 0.0029(7)
Se60 Se2- 0.0214(9) 0.0269(9) 0.0286(9) 0.0124(8) -0.0021(7) -0.0028(7)
Na1 Na1+ 0.041(5) 0.045(5) 0.036(4) 0.014(4) -0.003(3) 0.008(3)
Na2 Na1+ 0.060(6) 0.055(5) 0.048(5) 0.033(5) -0.011(4) -0.006(4)
Na3 Na1+ 0.038(4) 0.028(4) 0.046(4) 0.014(4) -0.001(3) 0.002(3)
Na4 Na1+ 0.054(5) 0.041(5) 0.036(4) 0.018(4) 0.011(4) -0.002(3)
Na5 Na1+ 0.031(4) 0.034(4) 0.060(5) 0.014(4) 0.006(4) 0.004(4)
Na6 Na1+ 0.039(4) 0.039(4) 0.050(4) 0.022(4) -0.016(4) -0.012(4)
Na7 Na1+ 0.050(5) 0.052(5) 0.047(5) 0.027(4) -0.007(4) -0.005(4)
Na8 Na1+ 0.052(5) 0.023(4) 0.047(5) 0.003(4) -0.006(4) 0.003(3)
Na9 Na1+ 0.056(5) 0.048(5) 0.041(5) 0.024(4) 0.000(4) 0.007(4)
Na10 Na1+ 0.032(4) 0.045(5) 0.053(5) 0.018(4) -0.006(4) -0.009(4)
Na11 Na1+ 0.053(5) 0.037(5) 0.051(5) 0.018(4) 0.005(4) -0.010(4)
Na12 Na1+ 0.056(5) 0.053(5) 0.066(5) 0.042(5) 0.003(4) 0.004(4)
#End of TTdata_243563-ICSD