
#(C) 2020 by FIZ Karlsruhe - Leibniz Institute for Information Infrastructure.  All rights reserved.
data_243671-ICSD
_database_code_ICSD 243671
_audit_creation_date 2017-08-01
_chemical_name_common 'Rubidium diboroantimonate(V) - beta'
_chemical_formula_structural 'Rb B2 Sb O6'
_chemical_formula_sum 'B2 O6 Rb1 Sb1'
_chemical_name_structure_type Ba2TiOF6
_exptl_crystal_density_diffrn 4.26
_diffrn_ambient_temperature 293.
_citation_title

;
A2SbB3O8 (A = Na, K, Rb) and beta-RbSbB2O6: two types of alkali
boroantimonates with 3D anionic architectures composed of SbO6 octahedra and
borate groups
;
loop_
_citation_id
_citation_journal_full
_citation_year
_citation_journal_volume
_citation_page_first
_citation_page_last
_citation_journal_id_ASTM
primary CrystEngComm 2016 18 1655 1664 CRECF4
loop_
_citation_author_citation_id
_citation_author_name
primary 'Yan, Dong'
primary 'Hu, Chun-Li'
primary 'Mao, Jiang-Gao'
_cell_length_a 11.7148(14)
_cell_length_b 7.1633(6)
_cell_length_c 7.4109(8)
_cell_angle_alpha 90.
_cell_angle_beta 125.435(10)
_cell_angle_gamma 90.
_cell_volume 506.7
_cell_formula_units_Z 4
_space_group_name_H-M_alt 'C 1 c 1'
_space_group_IT_number 9
loop_
_space_group_symop_id
_space_group_symop_operation_xyz
1 'x, -y, z+1/2'
2 'x, y, z'
3 'x+1/2, -y+1/2, z+1/2'
4 'x+1/2, y+1/2, z'
loop_
_atom_type_symbol
_atom_type_oxidation_number
Rb1+ 1
Sb5+ 5
B3+ 3
O2- -2
loop_
_atom_site_label
_atom_site_type_symbol
_atom_site_symmetry_multiplicity
_atom_site_Wyckoff_symbol
_atom_site_fract_x
_atom_site_fract_y
_atom_site_fract_z
_atom_site_U_iso_or_equiv
_atom_site_occupancy
Rb1 Rb1+ 4 a 0.01176(11) 0.52094(16) 0.44078(14) 0.0149(3) 1
Sb1 Sb5+ 4 a 0.10451(8) -0.01315(9) 0.27580(10) 0.00660(19) 1
B1 B3+ 4 a 0.3372(16) 0.2952(17) 0.534(2) 0.015(3) 1
B2 B3+ 4 a 0.3047(16) 0.6351(18) 0.446(2) 0.013(3) 1
O1 O2- 4 a 0.2824(9) 0.1216(11) 0.4785(13) 0.0119(16) 1
O2 O2- 4 a 0.2590(9) 0.4488(11) 0.4188(15) 0.0159(18) 1
O3 O2- 4 a 0.4782(9) 0.3037(11) 0.7077(15) 0.0138(17) 1
O4 O2- 4 a 0.4405(9) 0.6815(11) 0.5961(14) 0.0165(18) 1
O5 O2- 4 a 0.2052(9) 0.7591(10) 0.3050(13) 0.0115(17) 1
O6 O2- 4 a 0.1076(11) -0.0804(10) 0.5303(15) 0.0158(16) 1
loop_
_atom_site_aniso_label
_atom_site_aniso_type_symbol
_atom_site_aniso_U_11
_atom_site_aniso_U_22
_atom_site_aniso_U_33
_atom_site_aniso_U_12
_atom_site_aniso_U_13
_atom_site_aniso_U_23
Rb1 Rb1+ 0.0195(7) 0.0114(6) 0.0161(6) 0.0008(8) 0.0116(6) -0.0019(8)
Sb1 Sb5+ 0.0081(3) 0.0042(3) 0.0075(3) -0.0009(6) 0.0046(3) -0.0002(6)
B1 B3+ 0.020(8) 0.015(6) 0.009(6) -0.004(6) 0.008(6) -0.003(5)
B2 B3+ 0.022(8) 0.011(5) 0.012(6) -0.005(5) 0.013(6) -0.001(5)
O1 O2- 0.009(3) 0.009(3) 0.013(3) -0.003(2) 0.004(2) 0.000(2)
O2 O2- 0.008(5) 0.007(3) 0.023(5) -0.002(3) 0.004(4) 0.002(3)
O3 O2- 0.011(4) 0.009(3) 0.015(4) 0.002(3) 0.004(4) 0.006(3)
O4 O2- 0.010(4) 0.012(4) 0.019(4) 0.003(3) 0.003(4) 0.002(3)
O5 O2- 0.008(4) 0.010(3) 0.012(4) 0.004(3) 0.003(4) 0.002(3)
O6 O2- 0.026(5) 0.009(3) 0.018(4) -0.003(4) 0.016(4) 0.002(4)
#End of TTdata_243671-ICSD