
#(C) 2020 by FIZ Karlsruhe - Leibniz Institute for Information Infrastructure.  All rights reserved.
data_244202-ICSD
_database_code_ICSD 244202
_audit_creation_date 2018-02-01
_chemical_name_common 'Tripotassium hexaborate bromide - KBB'
_chemical_formula_structural 'K3 B6 O10 Br'
_chemical_formula_sum 'B6 Br1 K3 O10'
_chemical_name_structure_type K3B6O10Br
_exptl_crystal_density_diffrn 2.67
_diffrn_ambient_temperature 296.
_citation_title
'Thermo-physical properties of nonlinear optical crystal K3B6O10Br'
loop_
_citation_id
_citation_journal_full
_citation_year
_citation_journal_volume
_citation_page_first
_citation_page_last
_citation_journal_id_ASTM
primary 'Journal of Applied Crystallography' 2016 49 539 543 JACGAR
loop_
_citation_author_citation_id
_citation_author_name
primary 'Xia, Mingjun'
primary 'Xu, Bo'
primary 'Liu, Lijuan'
primary 'Wang, Xiaoyang'
primary 'Li, Rukang'
primary 'Chen, Chuangtian'
_cell_length_a 10.1252(14)
_cell_length_b 10.1252(14)
_cell_length_c 8.8687(18)
_cell_angle_alpha 90.
_cell_angle_beta 90.
_cell_angle_gamma 120.
_cell_volume 787.4
_cell_formula_units_Z 3
_space_group_name_H-M_alt 'R 3 m H'
_space_group_IT_number 160
loop_
_space_group_symop_id
_space_group_symop_operation_xyz
1 '-x+y, y, z'
2 'x, x-y, z'
3 '-y, -x, z'
4 '-x+y, -x, z'
5 '-y, x-y, z'
6 'x, y, z'
7 '-x+y+2/3, y+1/3, z+1/3'
8 'x+2/3, x-y+1/3, z+1/3'
9 '-y+2/3, -x+1/3, z+1/3'
10 '-x+y+2/3, -x+1/3, z+1/3'
11 '-y+2/3, x-y+1/3, z+1/3'
12 'x+2/3, y+1/3, z+1/3'
13 '-x+y+1/3, y+2/3, z+2/3'
14 'x+1/3, x-y+2/3, z+2/3'
15 '-y+1/3, -x+2/3, z+2/3'
16 '-x+y+1/3, -x+2/3, z+2/3'
17 '-y+1/3, x-y+2/3, z+2/3'
18 'x+1/3, y+2/3, z+2/3'
loop_
_atom_type_symbol
_atom_type_oxidation_number
Br1- -1
K1+ 1
O2- -2
B3+ 3
loop_
_atom_site_label
_atom_site_type_symbol
_atom_site_symmetry_multiplicity
_atom_site_Wyckoff_symbol
_atom_site_fract_x
_atom_site_fract_y
_atom_site_fract_z
_atom_site_U_iso_or_equiv
_atom_site_occupancy
Br1 Br1- 3 a 0. 0. 0.99502(7) 0.0214(4) 1
K1 K1+ 9 b 0.18026(6) 0.36051(12) 0.88304(12) 0.0157(3) 1
O1 O2- 3 a 0. 0. 0.5512(7) 0.0057(11) 1
O2 O2- 9 b 0.44484(16) 0.55516(16) 1.0558(4) 0.0108(7) 1
O3 O2- 18 c 0.2327(2) 0.2336(2) 0.6246(3) 0.0115(6) 1
B1 B3+ 9 b 0.0871(2) 0.1741(5) 0.5452(6) 0.0072(10) 1
B2 B3+ 9 b 0.2997(5) 0.1499(2) 0.6611(6) 0.0073(11) 1
loop_
_atom_site_aniso_label
_atom_site_aniso_type_symbol
_atom_site_aniso_U_11
_atom_site_aniso_U_22
_atom_site_aniso_U_33
_atom_site_aniso_U_12
_atom_site_aniso_U_13
_atom_site_aniso_U_23
Br1 Br1- 0.0199(4) 0.0199(4) 0.0243(5) 0.0100(2) 0. 0.
K1 K1+ 0.0136(5) 0.0188(6) 0.0165(6) 0.0094(3) -0.0021(2) -0.0043(5)
O1 O2- 0.0062(16) 0.0062(16) 0.005(2) 0.0031(8) 0. 0.
O2 O2- 0.0135(11) 0.0135(11) 0.0092(14) 0.0095(14) 0.0012(6) -0.0012(6)
O3 O2- 0.0087(12) 0.0096(12) 0.0151(11) 0.0037(10) -0.0059(8) -0.0021(8)
B1 B3+ 0.0050(16) 0.006(2) 0.011(3) 0.0030(11) 0.0000(9) -0.0001(17)
B2 B3+ 0.006(3) 0.0111(18) 0.003(2) 0.0031(13) 0.002(3) 0.0011(13)
#End of TTdata_244202-ICSD