
#(C) 2020 by FIZ Karlsruhe - Leibniz Institute for Information Infrastructure.  All rights reserved.
data_244344-ICSD
_database_code_ICSD 244344
_audit_creation_date 2018-02-01
_chemical_name_common 'Heptapotassium strontium diyttrium tris(pentaborate)'
_chemical_formula_structural 'K7 Sr Y2 (B5 O10)3'
_chemical_formula_sum 'B15 K7 O30 Sr1 Y2'
_chemical_name_structure_type K7CaY2(B5O10)3
_exptl_crystal_density_diffrn 2.58
_diffrn_ambient_temperature 296.
_citation_title

;
Chemical cosubstitution-oriented design of rare-earth borates as potential
ultraviolet nonlinear optical materials
;
loop_
_citation_id
_citation_journal_full
_citation_year
_citation_journal_volume
_citation_page_first
_citation_page_last
_citation_journal_id_ASTM
primary 'Journal of the American Chemical Society' 2017 139 18397 18405 JACSAT
loop_
_citation_author_citation_id
_citation_author_name
primary 'Mutailipu, Miriding'
primary 'Xie, Zhiqing'
primary 'Su, Xin'
primary 'Zhang, Min'
primary 'Wang, Ying'
primary 'Yang, Zhihua'
primary 'Janjua, Muhammad Ramzan Saeed Ashraf'
primary 'Pan, Shilie'
_cell_length_a 13.1142(18)
_cell_length_b 13.1142(18)
_cell_length_c 15.319(4)
_cell_angle_alpha 90.
_cell_angle_beta 90.
_cell_angle_gamma 120.
_cell_volume 2281.62
_cell_formula_units_Z 3
_space_group_name_H-M_alt 'R 3 2 H'
_space_group_IT_number 155
loop_
_space_group_symop_id
_space_group_symop_operation_xyz
1 '-x, -x+y, -z'
2 'x-y, -y, -z'
3 'y, x, -z'
4 '-x+y, -x, z'
5 '-y, x-y, z'
6 'x, y, z'
7 '-x+2/3, -x+y+1/3, -z+1/3'
8 'x-y+2/3, -y+1/3, -z+1/3'
9 'y+2/3, x+1/3, -z+1/3'
10 '-x+y+2/3, -x+1/3, z+1/3'
11 '-y+2/3, x-y+1/3, z+1/3'
12 'x+2/3, y+1/3, z+1/3'
13 '-x+1/3, -x+y+2/3, -z+2/3'
14 'x-y+1/3, -y+2/3, -z+2/3'
15 'y+1/3, x+2/3, -z+2/3'
16 '-x+y+1/3, -x+2/3, z+2/3'
17 '-y+1/3, x-y+2/3, z+2/3'
18 'x+1/3, y+2/3, z+2/3'
loop_
_atom_type_symbol
_atom_type_oxidation_number
Y3+ 3
Sr2+ 2
K1+ 1
B3+ 3
O2- -2
loop_
_atom_site_label
_atom_site_type_symbol
_atom_site_symmetry_multiplicity
_atom_site_Wyckoff_symbol
_atom_site_fract_x
_atom_site_fract_y
_atom_site_fract_z
_atom_site_U_iso_or_equiv
_atom_site_occupancy
Y1 Y3+ 6 c 1. 1. 0.72583(3) 0.00945(15) 1
Sr1 Sr2+ 3 b 0.6667 0.3333 0.8333 0.0224(2) 1
K1 K1+ 9 d 0.51240(13) 0.51240(13) 1. 0.0319(4) 1
K2 K1+ 9 e 0.6667 0.79634(11) 0.8333 0.0264(3) 1
K3 K1+ 3 a 1. 1. 1. 0.0254(4) 1
B1 B3+ 18 f 0.8047(5) 0.5867(4) 0.9471(2) 0.0176(10) 1
B2 B3+ 18 f 0.9027(4) 0.7727(4) 0.8660(2) 0.0136(10) 1
B3 B3+ 9 d 1. 0.7479(5) 1. 0.0184(14) 1
O1 O2- 18 f 0.8968(2) 0.8352(2) 0.80070(14) 0.0178(7) 1
O2 O2- 18 f 0.8072(3) 0.6594(3) 0.87932(18) 0.0362(10) 1
O3 O2- 18 f 0.8948(3) 0.6317(2) 1.00550(16) 0.0226(7) 1
O4 O2- 18 f 0.7135(2) 0.4775(2) 0.95416(16) 0.0214(7) 1
O5 O2- 18 f 0.9960(2) 0.8121(2) 0.92194(15) 0.0191(6) 1
loop_
_atom_site_aniso_label
_atom_site_aniso_type_symbol
_atom_site_aniso_U_11
_atom_site_aniso_U_22
_atom_site_aniso_U_33
_atom_site_aniso_U_12
_atom_site_aniso_U_13
_atom_site_aniso_U_23
Y1 Y3+ 0.0096(2) 0.0096(2) 0.0092(2) 0.00478(10) 0. 0.
Sr1 Sr2+ 0.0279(3) 0.0279(3) 0.0114(3) 0.01394(16) 0. 0.
K1 K1+ 0.0269(7) 0.0269(7) 0.0415(7) 0.0132(7) -0.0075(3) 0.0075(3)
K2 K1+ 0.0209(7) 0.0311(6) 0.0237(6) 0.0104(4) -0.0016(5) -0.0008(3)
K3 K1+ 0.0184(6) 0.0184(6) 0.0395(10) 0.0092(3) 0. 0.
B1 B3+ 0.018(3) 0.017(2) 0.0184(17) 0.010(2) 0.000(2) 0.0018(16)
B2 B3+ 0.012(3) 0.012(2) 0.0146(16) 0.0044(18) 0.0017(17) -0.0006(14)
B3 B3+ 0.015(3) 0.019(3) 0.020(3) 0.0076(17) -0.007(2) -0.0035(12)
O1 O2- 0.0187(17) 0.0152(14) 0.0180(11) 0.0074(13) 0.0003(11) 0.0054(10)
O2 O2- 0.028(2) 0.0199(16) 0.0371(15) -0.0054(15) -0.0183(14) 0.0147(13)
O3 O2- 0.0245(17) 0.0180(16) 0.0199(13) 0.0066(14) -0.0056(12) 0.0067(12)
O4 O2- 0.0224(17) 0.0126(14) 0.0240(12) 0.0049(13) -0.0025(11) 0.0053(10)
O5 O2- 0.0179(16) 0.0174(15) 0.0170(12) 0.0050(13) -0.0027(12) 0.0022(11)
#End of TTdata_244344-ICSD