
#(C) 2020 by FIZ Karlsruhe - Leibniz Institute for Information Infrastructure.  All rights reserved.
data_244341-ICSD
_database_code_ICSD 244341
_audit_creation_date 2018-02-01
_chemical_name_common 'Heptapotassium strontium dibismuth tris(pentaborate)'
_chemical_formula_structural 'K7 Sr Bi2 (B5 O10)3'
_chemical_formula_sum 'B15 Bi2 K7 O30 Sr1'
_chemical_name_structure_type K7CaY2(B5O10)3
_exptl_crystal_density_diffrn 3.05
_diffrn_ambient_temperature 296.
_citation_title

;
Chemical cosubstitution-oriented design of rare-earth borates as potential
ultraviolet nonlinear optical materials
;
loop_
_citation_id
_citation_journal_full
_citation_year
_citation_journal_volume
_citation_page_first
_citation_page_last
_citation_journal_id_ASTM
primary 'Journal of the American Chemical Society' 2017 139 18397 18405 JACSAT
loop_
_citation_author_citation_id
_citation_author_name
primary 'Mutailipu, Miriding'
primary 'Xie, Zhiqing'
primary 'Su, Xin'
primary 'Zhang, Min'
primary 'Wang, Ying'
primary 'Yang, Zhihua'
primary 'Janjua, Muhammad Ramzan Saeed Ashraf'
primary 'Pan, Shilie'
_cell_length_a 13.2512(19)
_cell_length_b 13.2512(19)
_cell_length_c 15.288(4)
_cell_angle_alpha 90.
_cell_angle_beta 90.
_cell_angle_gamma 120.
_cell_volume 2324.83
_cell_formula_units_Z 3
_space_group_name_H-M_alt 'R 3 2 H'
_space_group_IT_number 155
loop_
_space_group_symop_id
_space_group_symop_operation_xyz
1 '-x, -x+y, -z'
2 'x-y, -y, -z'
3 'y, x, -z'
4 '-x+y, -x, z'
5 '-y, x-y, z'
6 'x, y, z'
7 '-x+2/3, -x+y+1/3, -z+1/3'
8 'x-y+2/3, -y+1/3, -z+1/3'
9 'y+2/3, x+1/3, -z+1/3'
10 '-x+y+2/3, -x+1/3, z+1/3'
11 '-y+2/3, x-y+1/3, z+1/3'
12 'x+2/3, y+1/3, z+1/3'
13 '-x+1/3, -x+y+2/3, -z+2/3'
14 'x-y+1/3, -y+2/3, -z+2/3'
15 'y+1/3, x+2/3, -z+2/3'
16 '-x+y+1/3, -x+2/3, z+2/3'
17 '-y+1/3, x-y+2/3, z+2/3'
18 'x+1/3, y+2/3, z+2/3'
loop_
_atom_type_symbol
_atom_type_oxidation_number
Bi3+ 3
Sr2+ 2
K1+ 1
B3+ 3
O2- -2
loop_
_atom_site_label
_atom_site_type_symbol
_atom_site_symmetry_multiplicity
_atom_site_Wyckoff_symbol
_atom_site_fract_x
_atom_site_fract_y
_atom_site_fract_z
_atom_site_U_iso_or_equiv
_atom_site_occupancy
Bi1 Bi3+ 6 c 0. 0. 0.267866(16) 0.01530(10) 1
Sr1 Sr2+ 3 b 0.3333 0.6667 0.1667 0.0273(2) 1
K1 K1+ 9 d 0.4885(3) 0.4885(3) 0. 0.0543(7) 1
K2 K1+ 9 e 0.3333 0.19811(13) 0.1667 0.0300(5) 1
K3 K1+ 3 a 0. 0. 0. 0.0299(5) 1
B1 B3+ 18 f 0.1937(11) 0.4140(5) 0.0494(4) 0.037(2) 1
B2 B3+ 18 f 0.1027(9) 0.2321(5) 0.1319(4) 0.0248(18) 1
B3 B3+ 9 d 0. 0.2514(7) 0. 0.029(2) 1
O1 O2- 18 f 0.1167(3) 0.1745(3) 0.1967(2) 0.0298(11) 1
O2 O2- 18 f 0.1906(7) 0.3473(4) 0.1204(3) 0.071(2) 1
O3 O2- 18 f 0.1022(4) 0.3653(3) -0.0094(2) 0.0325(10) 1
O4 O2- 18 f 0.2813(6) 0.5227(3) 0.0444(2) 0.052(2) 1
O5 O2- 18 f 0.0085(3) 0.1889(3) 0.0779(2) 0.0240(8) 1
loop_
_atom_site_aniso_label
_atom_site_aniso_type_symbol
_atom_site_aniso_U_11
_atom_site_aniso_U_22
_atom_site_aniso_U_33
_atom_site_aniso_U_12
_atom_site_aniso_U_13
_atom_site_aniso_U_23
Bi1 Bi3+ 0.01663(11) 0.01663(11) 0.01263(14) 0.00831(6) 0. 0.
Sr1 Sr2+ 0.0365(4) 0.0365(4) 0.0091(4) 0.01824(18) 0. 0.
K1 K1+ 0.0394(12) 0.0394(12) 0.0728(13) 0.0114(13) -0.0214(5) 0.0214(5)
K2 K1+ 0.0240(9) 0.0359(9) 0.0261(8) 0.0120(4) -0.0019(7) -0.0010(4)
K3 K1+ 0.0238(7) 0.0238(7) 0.0421(14) 0.0119(4) 0. 0.
B1 B3+ 0.056(7) 0.021(3) 0.030(3) 0.016(4) 0.007(4) 0.006(2)
B2 B3+ 0.035(5) 0.018(3) 0.022(2) 0.013(3) 0.003(3) 0.000(2)
B3 B3+ 0.039(6) 0.032(4) 0.019(4) 0.020(3) -0.001(4) 0.000(2)
O1 O2- 0.032(3) 0.027(2) 0.0278(19) 0.0127(17) -0.0022(16) 0.0061(16)
O2 O2- 0.077(5) 0.035(3) 0.048(2) -0.011(3) -0.037(3) 0.015(2)
O3 O2- 0.044(3) 0.024(2) 0.022(2) 0.011(2) -0.0026(19) 0.0069(17)
O4 O2- 0.080(5) 0.022(2) 0.0282(19) 0.007(3) 0.004(3) 0.0060(16)
O5 O2- 0.025(2) 0.0186(19) 0.0209(18) 0.0052(17) -0.0034(16) 0.0024(15)
#End of TTdata_244341-ICSD