
#(C) 2020 by FIZ Karlsruhe - Leibniz Institute for Information Infrastructure.  All rights reserved.
data_244340-ICSD
_database_code_ICSD 244340
_audit_creation_date 2018-02-01
_chemical_name_common 'Heptapotassium barium diyttrium tris(pentaborate)'
_chemical_formula_structural 'K7 Ba Y2 (B5 O10)3'
_chemical_formula_sum 'B15 Ba1 K7 O30 Y2'
_chemical_name_structure_type K7CaY2(B5O10)3
_exptl_crystal_density_diffrn 2.67
_diffrn_ambient_temperature 296.
_citation_title

;
Chemical cosubstitution-oriented design of rare-earth borates as potential
ultraviolet nonlinear optical materials
;
loop_
_citation_id
_citation_journal_full
_citation_year
_citation_journal_volume
_citation_page_first
_citation_page_last
_citation_journal_id_ASTM
primary 'Journal of the American Chemical Society' 2017 139 18397 18405 JACSAT
loop_
_citation_author_citation_id
_citation_author_name
primary 'Mutailipu, Miriding'
primary 'Xie, Zhiqing'
primary 'Su, Xin'
primary 'Zhang, Min'
primary 'Wang, Ying'
primary 'Yang, Zhihua'
primary 'Janjua, Muhammad Ramzan Saeed Ashraf'
primary 'Pan, Shilie'
_cell_length_a 12.9884(15)
_cell_length_b 12.9884(15)
_cell_length_c 15.718(4)
_cell_angle_alpha 90.
_cell_angle_beta 90.
_cell_angle_gamma 120.
_cell_volume 2296.35
_cell_formula_units_Z 3
_space_group_name_H-M_alt 'R 3 2 H'
_space_group_IT_number 155
loop_
_space_group_symop_id
_space_group_symop_operation_xyz
1 '-x, -x+y, -z'
2 'x-y, -y, -z'
3 'y, x, -z'
4 '-x+y, -x, z'
5 '-y, x-y, z'
6 'x, y, z'
7 '-x+2/3, -x+y+1/3, -z+1/3'
8 'x-y+2/3, -y+1/3, -z+1/3'
9 'y+2/3, x+1/3, -z+1/3'
10 '-x+y+2/3, -x+1/3, z+1/3'
11 '-y+2/3, x-y+1/3, z+1/3'
12 'x+2/3, y+1/3, z+1/3'
13 '-x+1/3, -x+y+2/3, -z+2/3'
14 'x-y+1/3, -y+2/3, -z+2/3'
15 'y+1/3, x+2/3, -z+2/3'
16 '-x+y+1/3, -x+2/3, z+2/3'
17 '-y+1/3, x-y+2/3, z+2/3'
18 'x+1/3, y+2/3, z+2/3'
loop_
_atom_type_symbol
_atom_type_oxidation_number
Y3+ 3
Ba2+ 2
K1+ 1
B3+ 3
O2- -2
loop_
_atom_site_label
_atom_site_type_symbol
_atom_site_symmetry_multiplicity
_atom_site_Wyckoff_symbol
_atom_site_fract_x
_atom_site_fract_y
_atom_site_fract_z
_atom_site_U_iso_or_equiv
_atom_site_occupancy
Y1 Y3+ 6 c 1. 1. 0.72997(7) 0.0091(3) 1
Ba1 Ba2+ 3 b 0.6667 0.3333 0.8333 0.0378(4) 1
K1 K1+ 9 d 0.5139(2) 0.5139(2) 1. 0.0207(6) 1
K2 K1+ 9 e 0.6667 0.7956(3) 0.8333 0.0227(6) 1
K3 K1+ 3 a 1. 1. 1. 0.0264(10) 1
B1 B3+ 18 f 0.7983(12) 0.5869(8) 0.9528(6) 0.0162(17) 1
B2 B3+ 18 f 0.9011(9) 0.7712(9) 0.8698(6) 0.017(2) 1
B3 B3+ 9 d 1. 0.7471(13) 1. 0.020(3) 1
O1 O2- 18 f 0.8980(6) 0.8326(5) 0.8040(4) 0.0183(14) 1
O2 O2- 18 f 0.8041(7) 0.6576(7) 0.8829(5) 0.040(2) 1
O3 O2- 18 f 0.8941(6) 0.6293(6) 1.0071(4) 0.0225(14) 1
O4 O2- 18 f 0.7047(6) 0.4797(5) 0.9647(4) 0.0172(13) 1
O5 O2- 18 f 0.9957(6) 0.8115(6) 0.9240(4) 0.0195(13) 1
loop_
_atom_site_aniso_label
_atom_site_aniso_type_symbol
_atom_site_aniso_U_11
_atom_site_aniso_U_22
_atom_site_aniso_U_33
_atom_site_aniso_U_12
_atom_site_aniso_U_13
_atom_site_aniso_U_23
Y1 Y3+ 0.0092(4) 0.0092(4) 0.0089(5) 0.0046(2) 0. 0.
Ba1 Ba2+ 0.0483(6) 0.0483(6) 0.0167(6) 0.0242(3) 0. 0.
K1 K1+ 0.0143(12) 0.0143(12) 0.0367(14) 0.0096(13) -0.0045(5) 0.0045(5)
K2 K1+ 0.0149(13) 0.0261(11) 0.0233(14) 0.0074(7) -0.0015(10) -0.0008(5)
K3 K1+ 0.0190(13) 0.0190(13) 0.041(3) 0.0095(7) 0. 0.
B1 B3+ 0.018(5) 0.013(4) 0.017(4) 0.008(4) -0.001(5) 0.001(3)
B2 B3+ 0.012(5) 0.017(4) 0.016(4) 0.004(4) 0.002(4) -0.001(3)
B3 B3+ 0.017(7) 0.025(6) 0.013(6) 0.009(3) -0.006(5) -0.003(2)
O1 O2- 0.021(4) 0.013(3) 0.018(3) 0.007(3) 0.003(2) 0.009(2)
O2 O2- 0.030(5) 0.030(4) 0.033(4) -0.004(3) -0.012(3) 0.017(3)
O3 O2- 0.024(4) 0.020(3) 0.020(3) 0.009(3) -0.008(3) 0.006(3)
O4 O2- 0.020(3) 0.011(3) 0.019(3) 0.006(3) 0.000(2) 0.004(2)
O5 O2- 0.016(3) 0.015(3) 0.020(3) 0.002(3) -0.004(3) 0.003(3)
#End of TTdata_244340-ICSD