
#(C) 2020 by FIZ Karlsruhe - Leibniz Institute for Information Infrastructure.  All rights reserved.
data_244343-ICSD
_database_code_ICSD 244343
_audit_creation_date 2018-02-01
_chemical_name_common 'Heptapotassium calcium diyttrium tris(pentaborate)'
_chemical_formula_structural 'K7 Ca Y2 (B5 O10)3'
_chemical_formula_sum 'B15 Ca1 K7 O30 Y2'
_chemical_name_structure_type K7CaY2(B5O10)3
_exptl_crystal_density_diffrn 2.5
_diffrn_ambient_temperature 296.
_citation_title

;
Chemical cosubstitution-oriented design of rare-earth borates as potential
ultraviolet nonlinear optical materials
;
loop_
_citation_id
_citation_journal_full
_citation_year
_citation_journal_volume
_citation_page_first
_citation_page_last
_citation_journal_id_ASTM
primary 'Journal of the American Chemical Society' 2017 139 18397 18405 JACSAT
loop_
_citation_author_citation_id
_citation_author_name
primary 'Mutailipu, Miriding'
primary 'Xie, Zhiqing'
primary 'Su, Xin'
primary 'Zhang, Min'
primary 'Wang, Ying'
primary 'Yang, Zhihua'
primary 'Janjua, Muhammad Ramzan Saeed Ashraf'
primary 'Pan, Shilie'
_cell_length_a 13.2182(18)
_cell_length_b 13.2182(18)
_cell_length_c 14.949(4)
_cell_angle_alpha 90.
_cell_angle_beta 90.
_cell_angle_gamma 120.
_cell_volume 2261.97
_cell_formula_units_Z 3
_space_group_name_H-M_alt 'R 3 2 H'
_space_group_IT_number 155
loop_
_space_group_symop_id
_space_group_symop_operation_xyz
1 '-x, -x+y, -z'
2 'x-y, -y, -z'
3 'y, x, -z'
4 '-x+y, -x, z'
5 '-y, x-y, z'
6 'x, y, z'
7 '-x+2/3, -x+y+1/3, -z+1/3'
8 'x-y+2/3, -y+1/3, -z+1/3'
9 'y+2/3, x+1/3, -z+1/3'
10 '-x+y+2/3, -x+1/3, z+1/3'
11 '-y+2/3, x-y+1/3, z+1/3'
12 'x+2/3, y+1/3, z+1/3'
13 '-x+1/3, -x+y+2/3, -z+2/3'
14 'x-y+1/3, -y+2/3, -z+2/3'
15 'y+1/3, x+2/3, -z+2/3'
16 '-x+y+1/3, -x+2/3, z+2/3'
17 '-y+1/3, x-y+2/3, z+2/3'
18 'x+1/3, y+2/3, z+2/3'
loop_
_atom_type_symbol
_atom_type_oxidation_number
Y3+ 3
Ca2+ 2
K1+ 1
B3+ 3
O2- -2
loop_
_atom_site_label
_atom_site_type_symbol
_atom_site_symmetry_multiplicity
_atom_site_Wyckoff_symbol
_atom_site_fract_x
_atom_site_fract_y
_atom_site_fract_z
_atom_site_U_iso_or_equiv
_atom_site_occupancy
Y1 Y3+ 6 c 1. 1. 0.72175(3) 0.00924(12) 1
Ca1 Ca2+ 3 b 0.6667 0.3333 0.8333 0.0121(3) 1
K1 K1+ 9 d 0.51004(11) 0.51004(11) 1. 0.0339(3) 1
K2 K1+ 9 e 0.6667 0.79710(8) 0.8333 0.0243(3) 1
K3 K1+ 3 a 1. 1. 1. 0.0240(4) 1
B1 B3+ 18 f 0.8096(3) 0.5863(3) 0.9425(2) 0.0173(9) 1
B2 B3+ 18 f 0.9037(3) 0.7728(3) 0.8622(2) 0.0139(8) 1
B3 B3+ 9 d 1. 0.7512(4) 1. 0.0148(11) 1
O1 O2- 18 f 0.89588(17) 0.83663(17) 0.79694(12) 0.0154(5) 1
O2 O2- 18 f 0.8131(2) 0.65803(18) 0.87256(14) 0.0317(7) 1
O3 O2- 18 f 0.89617(19) 0.63446(19) 1.00609(13) 0.0203(5) 1
O4 O2- 18 f 0.7259(2) 0.47594(16) 0.94657(12) 0.0203(5) 1
O5 O2- 18 f 0.99591(18) 0.81368(18) 0.92066(13) 0.0166(5) 1
loop_
_atom_site_aniso_label
_atom_site_aniso_type_symbol
_atom_site_aniso_U_11
_atom_site_aniso_U_22
_atom_site_aniso_U_33
_atom_site_aniso_U_12
_atom_site_aniso_U_13
_atom_site_aniso_U_23
Y1 Y3+ 0.00935(16) 0.00935(16) 0.0090(2) 0.00468(8) 0. 0.
Ca1 Ca2+ 0.0149(4) 0.0149(4) 0.0066(6) 0.0074(2) 0. 0.
K1 K1+ 0.0288(5) 0.0288(5) 0.0384(6) 0.0100(5) -0.0110(2) 0.0110(2)
K2 K1+ 0.0200(6) 0.0275(5) 0.0228(6) 0.0100(3) -0.0007(4) -0.0004(2)
K3 K1+ 0.0179(5) 0.0179(5) 0.0362(9) 0.0090(2) 0. 0.
B1 B3+ 0.024(2) 0.0157(17) 0.0128(16) 0.0100(17) 0.0015(15) -0.0009(13)
B2 B3+ 0.016(2) 0.0120(16) 0.0127(15) 0.0065(14) -0.0008(13) 0.0001(12)
B3 B3+ 0.017(3) 0.015(2) 0.014(3) 0.0083(13) -0.0025(18) -0.0012(9)
O1 O2- 0.0157(13) 0.0145(11) 0.0145(10) 0.0063(9) 0.0001(8) 0.0029(8)
O2 O2- 0.0322(17) 0.0143(11) 0.0289(12) -0.0030(12) -0.0180(12) 0.0099(9)
O3 O2- 0.0247(13) 0.0167(12) 0.0156(12) 0.0073(11) -0.0054(9) 0.0030(9)
O4 O2- 0.0315(15) 0.0117(10) 0.0118(9) 0.0064(11) -0.0003(11) 0.0010(7)
O5 O2- 0.0175(12) 0.0136(11) 0.0131(11) 0.0036(10) -0.0028(9) 0.0031(9)
#End of TTdata_244343-ICSD