
#(C) 2020 by FIZ Karlsruhe - Leibniz Institute for Information Infrastructure.  All rights reserved.
data_244334-ICSD
_database_code_ICSD 244334
_audit_creation_date 2018-02-01
_chemical_name_common 'Heptapotassium lead(II) dibismuth tris(pentaborate)'
_chemical_formula_structural 'K7 Pb Bi2 (B5 O10)3'
_chemical_formula_sum 'B15 Bi2 K7 O30 Pb1'
_chemical_name_structure_type K7CaY2(B5O10)3
_exptl_crystal_density_diffrn 3.35
_diffrn_ambient_temperature 296.
_citation_title

;
Chemical cosubstitution-oriented design of rare-earth borates as potential
ultraviolet nonlinear optical materials
;
loop_
_citation_id
_citation_journal_full
_citation_year
_citation_journal_volume
_citation_page_first
_citation_page_last
_citation_journal_id_ASTM
primary 'Journal of the American Chemical Society' 2017 139 18397 18405 JACSAT
loop_
_citation_author_citation_id
_citation_author_name
primary 'Mutailipu, Miriding'
primary 'Xie, Zhiqing'
primary 'Su, Xin'
primary 'Zhang, Min'
primary 'Wang, Ying'
primary 'Yang, Zhihua'
primary 'Janjua, Muhammad Ramzan Saeed Ashraf'
primary 'Pan, Shilie'
_cell_length_a 13.331(2)
_cell_length_b 13.331(2)
_cell_length_c 14.910(5)
_cell_angle_alpha 90.
_cell_angle_beta 90.
_cell_angle_gamma 120.
_cell_volume 2294.74
_cell_formula_units_Z 3
_space_group_name_H-M_alt 'R 3 2 H'
_space_group_IT_number 155
loop_
_space_group_symop_id
_space_group_symop_operation_xyz
1 '-x, -x+y, -z'
2 'x-y, -y, -z'
3 'y, x, -z'
4 '-x+y, -x, z'
5 '-y, x-y, z'
6 'x, y, z'
7 '-x+2/3, -x+y+1/3, -z+1/3'
8 'x-y+2/3, -y+1/3, -z+1/3'
9 'y+2/3, x+1/3, -z+1/3'
10 '-x+y+2/3, -x+1/3, z+1/3'
11 '-y+2/3, x-y+1/3, z+1/3'
12 'x+2/3, y+1/3, z+1/3'
13 '-x+1/3, -x+y+2/3, -z+2/3'
14 'x-y+1/3, -y+2/3, -z+2/3'
15 'y+1/3, x+2/3, -z+2/3'
16 '-x+y+1/3, -x+2/3, z+2/3'
17 '-y+1/3, x-y+2/3, z+2/3'
18 'x+1/3, y+2/3, z+2/3'
loop_
_atom_type_symbol
_atom_type_oxidation_number
Bi3+ 3
Pb2+ 2
K1+ 1
B3+ 3
O2- -2
loop_
_atom_site_label
_atom_site_type_symbol
_atom_site_symmetry_multiplicity
_atom_site_Wyckoff_symbol
_atom_site_fract_x
_atom_site_fract_y
_atom_site_fract_z
_atom_site_U_iso_or_equiv
_atom_site_occupancy
Bi1 Bi3+ 6 c 1. 1. 0.72918(4) 0.0166(3) 1
Pb1 Pb2+ 3 b 0.6667 0.3333 0.8333 0.0325(3) 1
K1 K1+ 9 d 0.5103(5) 0.5103(5) 1. 0.0424(12) 1
K2 K1+ 9 e 0.6667 0.8017(3) 0.8333 0.0199(8) 1
K3 K1+ 3 a 1. 1. 1. 0.0198(10) 1
B1 B3+ 18 f 0.8164(13) 0.5833(11) 0.9431(10) 0.027(4) 1
B2 B3+ 18 f 0.8985(13) 0.7678(10) 0.8635(8) 0.015(3) 1
B3 B3+ 9 d 1. 0.7505(13) 1. 0.011(3) 1
O1 O2- 18 f 0.8834(7) 0.8282(7) 0.8003(6) 0.0180(17) 1
O2 O2- 18 f 0.8153(14) 0.6502(8) 0.8683(6) 0.039(3) 1
O3 O2- 18 f 0.8975(8) 0.6355(7) 1.0092(6) 0.0206(18) 1
O4 O2- 18 f 0.7197(9) 0.4736(8) 0.9454(6) 0.033(2) 1
O5 O2- 18 f 0.9920(7) 0.8116(7) 0.9205(5) 0.0150(16) 1
loop_
_atom_site_aniso_label
_atom_site_aniso_type_symbol
_atom_site_aniso_U_11
_atom_site_aniso_U_22
_atom_site_aniso_U_33
_atom_site_aniso_U_12
_atom_site_aniso_U_13
_atom_site_aniso_U_23
Bi1 Bi3+ 0.0150(3) 0.0150(3) 0.0199(4) 0.00749(14) 0. 0.
Pb1 Pb2+ 0.0267(4) 0.0267(4) 0.0441(6) 0.01333(19) 0. 0.
K1 K1+ 0.0308(19) 0.0308(19) 0.048(2) 0.002(2) -0.0191(10) 0.0191(10)
K2 K1+ 0.0160(16) 0.0255(14) 0.0148(15) 0.0080(8) -0.0004(12) -0.0002(6)
K3 K1+ 0.0123(13) 0.0123(13) 0.035(3) 0.0061(6) 0. 0.
B1 B3+ 0.038(10) 0.007(5) 0.022(6) 0.002(5) 0.002(5) -0.003(5)
B2 B3+ 0.019(8) 0.009(5) 0.014(4) 0.004(5) 0.005(5) 0.002(4)
B3 B3+ 0.020(8) 0.014(5) 0.003(6) 0.010(4) 0.003(6) 0.001(3)
O1 O2- 0.018(4) 0.016(4) 0.021(4) 0.010(3) 0.002(3) 0.007(3)
O2 O2- 0.044(7) 0.015(4) 0.024(4) -0.011(6) -0.011(6) 0.002(3)
O3 O2- 0.029(5) 0.016(4) 0.016(4) 0.011(4) 0.000(3) 0.003(3)
O4 O2- 0.034(3) 0.032(2) 0.033(2) 0.0158(14) -0.0001(10) 0.0006(10)
O5 O2- 0.018(4) 0.013(4) 0.010(4) 0.005(3) -0.003(3) 0.005(3)
#End of TTdata_244334-ICSD