
#(C) 2020 by FIZ Karlsruhe - Leibniz Institute for Information Infrastructure.  All rights reserved.
data_244721-ICSD
_database_code_ICSD 244721
_audit_creation_date 2018-08-01
_chemical_name_common 'Dicalcium pentaborate'
_chemical_formula_structural '(Ca2 B5 O9) (H (O H)2)'
_chemical_formula_sum 'H3 B5 Ca2 O11'
_exptl_crystal_density_diffrn 2.68
_diffrn_ambient_temperature 293.
_citation_title

;
Synthesis, structure and characterization of a new nonlinear optical calcium
borate [Ca2B5O9].[H(OH)2]
;
loop_
_citation_id
_citation_journal_full
_citation_year
_citation_journal_volume
_citation_page_first
_citation_page_last
_citation_journal_id_ASTM
primary 'Inorganic Chemistry Communications' 2017 86 308 311 ICCOFP
loop_
_citation_author_citation_id
_citation_author_name
primary 'Sun, Yu-Jia'
primary 'Zhang, Zhong'
primary 'Wang, Yue-Lin'
primary 'Yang, Guo-Yu'
_cell_length_a 10.111(2)
_cell_length_b 7.7541(11)
_cell_length_c 6.1982(14)
_cell_angle_alpha 90.
_cell_angle_beta 127.04(3)
_cell_angle_gamma 90.
_cell_volume 387.89
_cell_formula_units_Z 2
_space_group_name_H-M_alt 'C 1 2 1'
_space_group_IT_number 5
loop_
_space_group_symop_id
_space_group_symop_operation_xyz
1 '-x, y, -z'
2 'x, y, z'
3 '-x+1/2, y+1/2, -z'
4 'x+1/2, y+1/2, z'
loop_
_atom_type_symbol
_atom_type_oxidation_number
Ca2+ 2
O2- -2
B3+ 3
O2- -2
B3+ 3
O2- -2
H1+ 1
loop_
_atom_site_label
_atom_site_type_symbol
_atom_site_symmetry_multiplicity
_atom_site_Wyckoff_symbol
_atom_site_fract_x
_atom_site_fract_y
_atom_site_fract_z
_atom_site_U_iso_or_equiv
_atom_site_occupancy
Ca1 Ca2+ 4 c -0.21121(8) 0.31954(12) 0.57235(13) 0.0116(2) 1
O1 O2- 4 c -0.0577(3) 0.6061(4) 0.7556(6) 0.0091(7) 1
O2 O2- 2 b 0. 0.4364(5) 0.5 0.0074(8) 1
B1 B3+ 2 a 0. 0.6996(9) 1. 0.0091(14) 1
B2 B3+ 4 c 0.0703(5) 0.5263(7) 0.7500(8) 0.0083(10) 1
O3 O2- 4 c 0.1938(3) 0.6561(4) 0.8035(5) 0.0097(6) 1
O4 O2- 4 c 0.1445(3) 0.8131(5) 1.0833(4) 0.0087(5) 1
B3 B3+ 4 c 0.2295(5) 0.7863(7) 0.9783(8) 0.0099(12) 1
O5 O2- 4 c 0.3515(3) 0.8927(4) 1.0311(5) 0.0104(7) 1
O6 O2- 4 c -0.4215(4) 0.5483(4) 0.4030(6) 0.0151(7) 1
H1 H1+ 4 c -0.477(6) 0.545(9) 0.254(11) 0.018 1
H2 H1+ 2 b -0.5 0.562(9) 0.5 0.018 1
loop_
_atom_site_aniso_label
_atom_site_aniso_type_symbol
_atom_site_aniso_U_11
_atom_site_aniso_U_22
_atom_site_aniso_U_33
_atom_site_aniso_U_12
_atom_site_aniso_U_13
_atom_site_aniso_U_23
Ca1 Ca2+ 0.0129(4) 0.0128(5) 0.0116(4) -0.0031(4) 0.0087(3) -0.0017(4)
O1 O2- 0.0079(14) 0.0090(18) 0.0120(17) 0.0013(11) 0.0069(13) -0.0002(13)
O2 O2- 0.0110(17) 0.005(2) 0.0091(18) 0. 0.0075(15) 0.
B1 B3+ 0.008(3) 0.008(4) 0.012(3) 0. 0.007(3) 0.
B2 B3+ 0.008(2) 0.007(3) 0.011(2) 0.002(2) 0.0060(18) 0.003(2)
O3 O2- 0.0116(13) 0.0081(17) 0.0125(14) -0.0025(12) 0.0088(11) -0.0041(12)
O4 O2- 0.0101(10) 0.0093(15) 0.0095(11) -0.0043(17) 0.0074(9) -0.0041(16)
B3 B3+ 0.0095(19) 0.012(4) 0.006(2) 0.003(2) 0.0034(16) 0.0061(18)
O5 O2- 0.0123(13) 0.0110(17) 0.0104(13) -0.0029(11) 0.0082(11) -0.0022(12)
O6 O2- 0.0138(16) 0.015(2) 0.0161(17) -0.0010(14) 0.0089(13) -0.0030(14)
#End of TTdata_244721-ICSD