
#(C) 2020 by FIZ Karlsruhe - Leibniz Institute for Information Infrastructure.  All rights reserved.
data_245016-ICSD
_database_code_ICSD 245016
_audit_creation_date 2007-08-01
_chemical_name_common 'Calcium dibismuth diborate'
_chemical_formula_structural 'Ca Bi2 B2 O7'
_chemical_formula_sum 'B2 Bi2 Ca1 O7'
_exptl_crystal_density_diffrn 6.38
_citation_title 'The non-centrosymmetric borate oxides, M Bi2 B2 O7 (M=Ca,Sr)'
loop_
_citation_id
_citation_journal_full
_citation_year
_citation_journal_volume
_citation_page_first
_citation_page_last
_citation_journal_id_ASTM
primary 'Journal of Solid State Chemistry' 2006 179 3958 3964 JSSCBI
loop_
_citation_author_citation_id
_citation_author_name
primary 'Barbier, J.'
primary 'Cranswick, L.M.D.'
_cell_length_a 8.9371(5)
_cell_length_b 5.4771(3)
_cell_length_c 12.5912(7)
_cell_angle_alpha 90.
_cell_angle_beta 90.
_cell_angle_gamma 90.
_cell_volume 616.33
_cell_formula_units_Z 4
_space_group_name_H-M_alt 'P n a 21'
_space_group_IT_number 33
loop_
_space_group_symop_id
_space_group_symop_operation_xyz
1 'x+1/2, -y+1/2, z'
2 '-x+1/2, y+1/2, z+1/2'
3 '-x, -y, z+1/2'
4 'x, y, z'
loop_
_atom_type_symbol
_atom_type_oxidation_number
Ca2+ 2
Bi3+ 3
B3+ 3
O2- -2
loop_
_atom_site_label
_atom_site_type_symbol
_atom_site_symmetry_multiplicity
_atom_site_Wyckoff_symbol
_atom_site_fract_x
_atom_site_fract_y
_atom_site_fract_z
_atom_site_B_iso_or_equiv
_atom_site_occupancy
Ca1 Ca2+ 4 a -0.1743(8) 0.5508(15) 0.5 1.14(15) 1.
Bi1 Bi3+ 4 a 0.1656(17) 0.431(2) 0.338(2) 0.87(6) 1.
Bi2 Bi3+ 4 a 0.1694(15) 0.444(2) 0.656(2) 0.87(6) 1.
B1 B3+ 4 a 0.4752(7) 0.4923(12) 0.6339(19) 0.74(6) 1.
B2 B3+ 4 a 0.4760(7) 0.4819(12) 0.3734(18) 0.74(6) 1.
O1 O2- 4 a -0.102(2) 0.796(2) 0.641(3) 0.94(4) 1.
O2 O2- 4 a 0.1261(9) 0.038(4) 0.631(2) 0.94(4) 1.
O3 O2- 4 a 0.392(2) 0.280(2) 0.635(2) 0.94(4) 1.
O4 O2- 4 a -0.095(2) 0.797(2) 0.361(2) 0.94(4) 1.
O5 O2- 4 a 0.1283(9) 0.043(3) 0.377(2) 0.94(4) 1.
O6 O2- 4 a 0.390(2) 0.274(3) 0.375(2) 0.94(4) 1.
O7 O2- 4 a 0.1333(6) 0.5306(11) 0.5 0.94(4) 1.
#End of TTdata_245016-ICSD