
#(C) 2020 by FIZ Karlsruhe - Leibniz Institute for Information Infrastructure.  All rights reserved.
data_245017-ICSD
_database_code_ICSD 245017
_audit_creation_date 2007-04-01
_audit_update_record 2013-08-01
_chemical_name_common 'Strontium dibismuth oxide borate'
_chemical_formula_structural 'Sr (Bi2 O) (B O3)2'
_chemical_formula_sum 'B2 Bi2 O7 Sr1'
_exptl_crystal_density_diffrn 6.73
_citation_title 'The non-centrosymmetric borate oxides, M Bi2 B2 O7 (M=Ca,Sr)'
loop_
_citation_id
_citation_journal_full
_citation_year
_citation_journal_volume
_citation_page_first
_citation_page_last
_citation_journal_id_ASTM
primary 'Journal of Solid State Chemistry' 2006 179 3958 3964 JSSCBI
loop_
_citation_author_citation_id
_citation_author_name
primary 'Barbier, J.'
primary 'Cranswick, L.M.D.'
_cell_length_a 9.1404(4)
_cell_length_b 9.1404(4)
_cell_length_c 13.0808(6)
_cell_angle_alpha 90.
_cell_angle_beta 90.
_cell_angle_gamma 120.
_cell_volume 946.44
_cell_formula_units_Z 6
_space_group_name_H-M_alt 'P 63'
_space_group_IT_number 173
loop_
_space_group_symop_id
_space_group_symop_operation_xyz
1 'x-y, x, z+1/2'
2 'y, -x+y, z+1/2'
3 '-x, -y, z+1/2'
4 '-x+y, -x, z'
5 '-y, x-y, z'
6 'x, y, z'
loop_
_atom_type_symbol
_atom_type_oxidation_number
Sr2+ 2
Bi3+ 3
B3+ 3
O2- -2
loop_
_atom_site_label
_atom_site_type_symbol
_atom_site_symmetry_multiplicity
_atom_site_Wyckoff_symbol
_atom_site_fract_x
_atom_site_fract_y
_atom_site_fract_z
_atom_site_B_iso_or_equiv
_atom_site_occupancy
Sr1 Sr2+ 6 c 0.9642(8) 0.3161(15) 0. 1.94(12) 1.
Bi1 Bi3+ 6 c 0.322(3) 0.339(3) 0.8402(2) 3.5(3) 1.
Bi2 Bi3+ 6 c 0.336(3) 0.344(3) 0.1650(16) 3.6(3) 1.
B1 B3+ 2 a 0. 0. 0.127(2) 1.25(6) 1.
B2 B3+ 2 b 0.33333 0.66667 0.1172(18) 1.25(6) 1.
B3 B3+ 2 b 0.66667 0.33333 0.1637(16) 1.25(6) 1.
B4 B3+ 2 a 0. 0. 0.361(2) 1.25(6) 1.
B5 B3+ 2 b 0.33333 0.66667 0.3509(16) 1.25(6) 1.
B6 B3+ 2 b 0.66667 0.33333 0.3677(19) 1.25(6) 1.
O1 O2- 6 c -.159(2) -0.138(2) 0.134(2) 2.19(5) 1.
O2 O2- 6 c 0.329(3) 0.8132(18) 0.1274(19) 2.19(5) 1.
O3 O2- 6 c 0.816(2) 0.334(4) 0.150(2) 2.19(5) 1.
O4 O2- 6 c -0.1429(19) 0.013(3) 0.359(3) 2.19(5) 1.
O5 O2- 6 c 0.327(4) 0.514(2) 0.343(2) 2.19(5) 1.
O6 O2- 6 c 0.5259(16) 0.349(3) 0.3743(19) 2.19(5) 1.
O7 O2- 6 c 0.3698(13) 0.330(2) 0. 2.19(5) 1.
#End of TTdata_245017-ICSD