
#(C) 2020 by FIZ Karlsruhe - Leibniz Institute for Information Infrastructure.  All rights reserved.
data_245774-ICSD
_database_code_ICSD 245774
_audit_creation_date 2008-08-01
_chemical_name_common 'Dilead pentaborate bromide'
_chemical_formula_structural 'Pb2 (B5 O9) Br'
_chemical_formula_sum 'B5 Br1 O9 Pb2'
_chemical_name_structure_type Ca2B5O9Br
_exptl_crystal_density_diffrn 5.35
_citation_title

;
Crystal structure of the lead bromo-borate Pb2 [B5 O9] Br from precision
single-crystal X-ray diffraction data and the problem of optical nonlinearity
of hilgardites
;
loop_
_citation_id
_citation_journal_full
_citation_year
_citation_journal_volume
_citation_page_first
_citation_page_last
_citation_journal_id_ASTM
primary Kristallografiya 2007 52 824 829 KRISAJ
loop_
_citation_author_citation_id
_citation_author_name
primary 'Belokoneva, E.L.'
primary 'Al'-Ama, A.G.'
primary 'Stefanovich, S.Yu.'
primary 'Plachinda, P.A.'
_cell_length_a 11.434(4)
_cell_length_b 11.491(6)
_cell_length_c 6.538(2)
_cell_angle_alpha 90.
_cell_angle_beta 90.
_cell_angle_gamma 90.
_cell_volume 859.02
_cell_formula_units_Z 4
_space_group_name_H-M_alt 'P n n 2'
_space_group_IT_number 34
loop_
_space_group_symop_id
_space_group_symop_operation_xyz
1 'x+1/2, -y+1/2, z+1/2'
2 '-x+1/2, y+1/2, z+1/2'
3 '-x, -y, z'
4 'x, y, z'
loop_
_atom_type_symbol
_atom_type_oxidation_number
Pb2+ 2
Br1- -1
O2- -2
B3+ 3
loop_
_atom_site_label
_atom_site_type_symbol
_atom_site_symmetry_multiplicity
_atom_site_Wyckoff_symbol
_atom_site_fract_x
_atom_site_fract_y
_atom_site_fract_z
_atom_site_B_iso_or_equiv
_atom_site_occupancy
Pb1 Pb2+ 4 c 0.76324(2) 0.97300(3) 0 1.016(6) 1.
Pb2 Pb2+ 4 c 0.45681(3) 0.75657(3) 0.8337(1) 0.983(6) 1.
Br1 Br1- 2 b 0.5 0 0.9848(5) 1.75(4) 1.
Br2 Br1- 2 a 0 0 0.2382(4) 1.81(4) 1.
O1 O2- 4 c 0.5748(6) 0.7903(6) 0.509(2) 0.97(13) 1.
O2 O2- 4 c 0.2887(7) 0.9175(5) 0.3272(15) 0.76(13) 1.
O3 O2- 4 c 0.2379(7) 0.8811(5) 0.6743(12) 0.71(13) 1.
O4 O2- 4 c 0.8881(6) 0.7656(6) 0.8961(13) 0.73(13) 1.
O5 O2- 4 c 0.7278(7) 0.8204(5) 0.2609(12) 0.47(12) 1.
O6 O2- 4 c 0.7248(7) 0.9287(5) 0.5808(12) 0.78(14) 1.
O7 O2- 4 c 0.6836(6) 0.7613(5) 0.9133(11) 0.55(12) 1.
O8 O2- 4 c 0.2725(7) 0.7709(5) 0.0785(12) 0.79(14) 1.
O9 O2- 4 c 0.0512(7) 0.7824(6) 0.6720(13) 1.03(14) 1.
B1 B3+ 4 c 0.2668(9) 0.9588(7) 0.512(3) 1.0(2) 1.
B2 B3+ 4 c 0.0044(9) 0.7521(8) 0.859(2) 0.5(2) 1.
B3 B3+ 4 c 0.7009(9) 0.8173(7) 0.486(2) 0.6(2) 1.
B4 B3+ 4 c 0.2812(9) 0.7873(8) 0.297(2) 0.5(2) 1.
B5 B3+ 4 c 0.1773(9) 0.7701(7) 0.633(2) 0.5(2) 1.
#End of TTdata_245774-ICSD