
#(C) 2020 by FIZ Karlsruhe - Leibniz Institute for Information Infrastructure.  All rights reserved.
data_245897-ICSD
_database_code_ICSD 245897
_audit_creation_date 2009-02-01
_chemical_name_common 'Bismuth cyclo-triborate'
_chemical_formula_structural 'Bi (B3 O6)'
_chemical_formula_sum 'B3 Bi1 O6'
_chemical_name_structure_type BiB3O6
_exptl_crystal_density_diffrn 5.03
_diffrn_ambient_temperature 295.
_citation_title
'Temperature-dependent X-ray and neutron diffraction study of Bi B3 O6'
loop_
_citation_id
_citation_journal_full
_citation_year
_citation_journal_volume
_citation_page_first
_citation_page_last
_citation_journal_id_ASTM
primary 'Zeitschrift fuer Kristallographie' 2007 222 680 689 ZEKRDZ
loop_
_citation_author_citation_id
_citation_author_name
primary 'Stein, W.D.'
primary 'Cousson, A.'
primary 'Becker, P.'
primary 'Bohaty, L.'
primary 'Braden, M.'
_cell_length_a 7.1181(1)
_cell_length_b 4.9947(1)
_cell_length_c 6.5069(1)
_cell_angle_alpha 90
_cell_angle_beta 105.5960(7)
_cell_angle_gamma 90
_cell_volume 222.82
_cell_formula_units_Z 2
_space_group_name_H-M_alt 'C 1 2 1'
_space_group_IT_number 5
loop_
_space_group_symop_id
_space_group_symop_operation_xyz
1 '-x, y, -z'
2 'x, y, z'
3 '-x+1/2, y+1/2, -z'
4 'x+1/2, y+1/2, z'
loop_
_atom_type_symbol
_atom_type_oxidation_number
Bi3+ 3
B3+ 3
O2- -2
loop_
_atom_site_label
_atom_site_type_symbol
_atom_site_symmetry_multiplicity
_atom_site_Wyckoff_symbol
_atom_site_fract_x
_atom_site_fract_y
_atom_site_fract_z
_atom_site_B_iso_or_equiv
_atom_site_occupancy
Bi1 Bi3+ 2 a 0 0 0 . 1.
B1 B3+ 2 b 0.5 0.2083(5) 0.5 . 1.
B2 B3+ 4 c 0.2525(3) 0.0555(4) 0.6950(4) . 1.
O1 O2- 4 c 0.3542(2) 0.0393(2) 0.5497(3) . 1.
O2 O2- 4 c 0.4067(2) 0.3863(3) 0.3158(3) . 1.
O3 O2- 4 c 0.2928(3) 0.2051(4) 0.8777(3) . 1.
loop_
_atom_site_aniso_label
_atom_site_aniso_type_symbol
_atom_site_aniso_U_11
_atom_site_aniso_U_22
_atom_site_aniso_U_33
_atom_site_aniso_U_12
_atom_site_aniso_U_13
_atom_site_aniso_U_23
Bi1 Bi3+ 0.00778(2) 0.00901(2) 0.00871(3) 0. 0.00325(2) 0.
B1 B3+ 0.00780(60) 0.01080(70) 0.00900(100) 0. 0.00350(60) 0.
B2 B3+ 0.00840(50) 0.01270(60) 0.00850(70) -0.00180(40) 0.00340(40) -0.00040(40)
O1 O2- 0.01160(30) 0.01230(50) 0.01350(50) -0.00370(30) 0.00820(30) -0.00240(30)
O2 O2- 0.00970(30) 0.01510(40) 0.00890(50) 0.00450(30) 0.00470(30) 0.00220(30)
O3 O2- 0.01650(50) 0.02420(70) 0.01140(60) -0.01060(50) 0.00780(40) -0.00740(50)
#End of TTdata_245897-ICSD