
#(C) 2020 by FIZ Karlsruhe - Leibniz Institute for Information Infrastructure.  All rights reserved.
data_246037-ICSD
_database_code_ICSD 246037
_audit_creation_date 2009-02-01
_chemical_name_common 'Distrontium nonaoxopentaborate chloride'
_chemical_formula_structural 'Sr2 (B5 O9) Cl'
_chemical_formula_sum 'B5 Cl1 O9 Sr2'
_chemical_name_structure_type Ca2B5O9Br
_exptl_crystal_density_diffrn 3.25
_diffrn_ambient_temperature 293.
_citation_title

;
Lead-strontium borate halides with hilgardite-type structure and their SHG
properties
;
loop_
_citation_id
_citation_journal_full
_citation_year
_citation_journal_volume
_citation_page_first
_citation_page_last
_citation_journal_id_ASTM
primary 'Journal of Solid State Chemistry' 2008 181 1891 1898 JSSCBI
loop_
_citation_author_citation_id
_citation_author_name
primary 'Egorova, B.V.'
primary 'Olenev, A.V.'
primary 'Berdonosov, P.S.'
primary 'Kuznetsov, A.N.'
primary 'Stefanovich, S.Yu.'
primary 'Dolgikh, V.A.'
primary 'Mahenthirarajah, T.'
primary 'Lightfoot, P.'
_cell_length_a 11.3153(5)
_cell_length_b 11.3838(5)
_cell_length_c 6.4945(2)
_cell_angle_alpha 90.
_cell_angle_beta 90.
_cell_angle_gamma 90.
_cell_volume 836.56
_cell_formula_units_Z 4
_space_group_name_H-M_alt 'P n n 2'
_space_group_IT_number 34
loop_
_space_group_symop_id
_space_group_symop_operation_xyz
1 'x+1/2, -y+1/2, z+1/2'
2 '-x+1/2, y+1/2, z+1/2'
3 '-x, -y, z'
4 'x, y, z'
loop_
_atom_type_symbol
_atom_type_oxidation_number
Sr2+ 2
Cl1- -1
O2- -2
B3+ 3
loop_
_atom_site_label
_atom_site_type_symbol
_atom_site_symmetry_multiplicity
_atom_site_Wyckoff_symbol
_atom_site_fract_x
_atom_site_fract_y
_atom_site_fract_z
_atom_site_U_iso_or_equiv
_atom_site_occupancy
Sr1 Sr2+ 4 c 0.0456(6) 0.2511(8) 0.0088(11) 0.0134(10) 1.
Sr2 Sr2+ 4 c 0.2408(6) 0.0272(7) -0.6561(11) 0.0134(10) 1.
Cl1 Cl1- 2 a 0 0 -0.8554(16) 0.0225(11) 1.
Cl2 Cl1- 2 b 0.5 0 -0.5997(15) 0.0225(11) 1.
O1 O2- 4 c 0.3153(7) 0.2444(7) -0.5829(12) 0.0075(6) 1.
O2 O2- 4 c 0.4229(7) 0.2131(7) -0.1769(14) 0.0075(6) 1.
O3 O2- 4 c 0.2239(7) 0.2807(6) -0.2495(14) 0.0075(6) 1.
O4 O2- 4 c 0.2651(7) 0.0789(6) -0.2507(11) 0.0075(6) 1.
O5 O2- 4 c 0.4495(6) 0.2804(7) -0.8413(13) 0.0075(6) 1.
O6 O2- 4 c 0.2656(6) 0.3867(7) -0.8500(12) 0.0075(6) 1.
O7 O2- 4 c 0.2648(7) 0.1824(8) -0.9302(13) 0.0075(6) 1.
O8 O2- 4 c 0.2051(8) 0.4232(7) -0.5027(11) 0.0075(6) 1.
O9 O2- 4 c 0.1118(7) 0.2346(8) -0.5769(11) 0.0075(6) 1.
B1 B3+ 4 c 0.3210(6) 0.2711(6) -0.7937(10) 0.0046(6) 1.
B2 B3+ 4 c 0.2937(6) 0.1889(6) -0.1497(11) 0.0046(6) 1.
B3 B3+ 4 c 0.2135(6) 0.2947(6) -0.4719(11) 0.0046(6) 1.
B4 B3+ 4 c 0.2360(6) 0.4629(5) -0.6901(10) 0.0046(6) 1.
B5 B3+ 4 c 0.4929(6) 0.2516(7) -0.0270(11) 0.0046(6) 1.
#End of TTdata_246037-ICSD