
#(C) 2020 by FIZ Karlsruhe - Leibniz Institute for Information Infrastructure.  All rights reserved.
data_247622-ICSD
_database_code_ICSD 247622
_audit_creation_date 2013-08-01
_chemical_name_common 'Cesium diberyllium borate difluoride'
_chemical_formula_structural 'Cs Be2 B O3 F2'
_chemical_formula_sum 'B1 Be2 Cs1 F2 O3'
_chemical_name_structure_type KBe2BO3F2
_exptl_crystal_density_diffrn 3.42
_citation_title 'Ultraviolet nonlinear optical crystal: Cs Be2 BO3 F2'
loop_
_citation_id
_citation_journal_full
_citation_year
_citation_journal_volume
_citation_page_first
_citation_page_last
_citation_journal_id_ASTM
primary 'Journal of the Optical Society of America B: Optical Physics' 2011 28
2186 2190 JOBPDE
loop_
_citation_author_citation_id
_citation_author_name
primary 'Huang, Hongwei'
primary 'Chen, Chuangtian'
primary 'Wang, Xiaoyang'
primary 'Zhu, Yong'
primary 'Wang, Guiling'
primary 'Zhang, Xin'
primary 'Wang, Lirong'
primary 'Yao, Jiyong'
_cell_length_a 4.4391(6)
_cell_length_b 4.4391(6)
_cell_length_c 21.125(4)
_cell_angle_alpha 90.
_cell_angle_beta 90.
_cell_angle_gamma 120.
_cell_volume 360.51
_cell_formula_units_Z 3
_space_group_name_H-M_alt 'R 3 2 H'
_space_group_IT_number 155
loop_
_space_group_symop_id
_space_group_symop_operation_xyz
1 '-x, -x+y, -z'
2 'x-y, -y, -z'
3 'y, x, -z'
4 '-x+y, -x, z'
5 '-y, x-y, z'
6 'x, y, z'
7 '-x+2/3, -x+y+1/3, -z+1/3'
8 'x-y+2/3, -y+1/3, -z+1/3'
9 'y+2/3, x+1/3, -z+1/3'
10 '-x+y+2/3, -x+1/3, z+1/3'
11 '-y+2/3, x-y+1/3, z+1/3'
12 'x+2/3, y+1/3, z+1/3'
13 '-x+1/3, -x+y+2/3, -z+2/3'
14 'x-y+1/3, -y+2/3, -z+2/3'
15 'y+1/3, x+2/3, -z+2/3'
16 '-x+y+1/3, -x+2/3, z+2/3'
17 '-y+1/3, x-y+2/3, z+2/3'
18 'x+1/3, y+2/3, z+2/3'
loop_
_atom_type_symbol
_atom_type_oxidation_number
Cs1+ 1
F1- -1
O2- -2
Be2+ 2
B3+ 3
loop_
_atom_site_label
_atom_site_type_symbol
_atom_site_symmetry_multiplicity
_atom_site_Wyckoff_symbol
_atom_site_fract_x
_atom_site_fract_y
_atom_site_fract_z
_atom_site_U_iso_or_equiv
_atom_site_occupancy
Cs1 Cs1+ 3 a 0 0 0 0.01123(18) 1.
F1 F1- 6 c 0 0 0.73493(17) 0.0109(8) 1.
O1 O2- 9 e 0.3096(10) 0 0.5 0.0065(10) 1.
Be1 Be2+ 6 c 0 0 0.8071(4) 0.0082(15) 1.
B1 B3+ 3 b 0 0 0.5 0.0044(16) 1.
#End of TTdata_247622-ICSD