
#(C) 2020 by FIZ Karlsruhe - Leibniz Institute for Information Infrastructure.  All rights reserved.
data_247762-ICSD
_database_code_ICSD 247762
_audit_creation_date 2013-08-01
_chemical_name_common 'Tripotassium yttrium bis(hexaoxotriborate)'
_chemical_formula_structural 'K3 Y (B3 O6)2'
_chemical_formula_sum 'B6 K3 O12 Y1'
_exptl_crystal_density_diffrn 2.52
_citation_title
'K3 Y B6 O12: A new nonlinear optical crystal with a short UV cutoff edge'
loop_
_citation_id
_citation_journal_full
_citation_year
_citation_journal_volume
_citation_page_first
_citation_page_last
_citation_journal_id_ASTM
primary 'Materials Research Bulletin' 2012 47 3810 3813 MRBUAC
loop_
_citation_author_citation_id
_citation_author_name
primary 'Zhao Sangen'
primary 'Zhang Guochun'
primary 'Yao Jiyong'
primary 'Wu Yicheng'
_cell_length_a 13.2202(19)
_cell_length_b 13.2202(19)
_cell_length_c 30.281(6)
_cell_angle_alpha 90.
_cell_angle_beta 90.
_cell_angle_gamma 120.
_cell_volume 4583.29
_cell_formula_units_Z 15
_space_group_name_H-M_alt 'R 3 2 H'
_space_group_IT_number 155
loop_
_space_group_symop_id
_space_group_symop_operation_xyz
1 '-x, -x+y, -z'
2 'x-y, -y, -z'
3 'y, x, -z'
4 '-x+y, -x, z'
5 '-y, x-y, z'
6 'x, y, z'
7 '-x+2/3, -x+y+1/3, -z+1/3'
8 'x-y+2/3, -y+1/3, -z+1/3'
9 'y+2/3, x+1/3, -z+1/3'
10 '-x+y+2/3, -x+1/3, z+1/3'
11 '-y+2/3, x-y+1/3, z+1/3'
12 'x+2/3, y+1/3, z+1/3'
13 '-x+1/3, -x+y+2/3, -z+2/3'
14 'x-y+1/3, -y+2/3, -z+2/3'
15 'y+1/3, x+2/3, -z+2/3'
16 '-x+y+1/3, -x+2/3, z+2/3'
17 '-y+1/3, x-y+2/3, z+2/3'
18 'x+1/3, y+2/3, z+2/3'
loop_
_atom_type_symbol
_atom_type_oxidation_number
Y3+ 3
K1+ 1
B3+ 3
O2- -2
loop_
_atom_site_label
_atom_site_type_symbol
_atom_site_symmetry_multiplicity
_atom_site_Wyckoff_symbol
_atom_site_fract_x
_atom_site_fract_y
_atom_site_fract_z
_atom_site_U_iso_or_equiv
_atom_site_occupancy
Y1 Y3+ 6 c 0.3333 0.6667 -1.22133(2) 0.0043(1) 1.
Y2 Y3+ 6 c 0.3333 0.6667 -1.72179(2) 0.0046(1) 1.
Y3 Y3+ 3 a 0.3333 0.6667 -1.3333 0.0071(2) 1.
K1 K1+ 9 e 0.12396(11) 0.3333 -1.1667 0.0117(3) 1.
K2 K1+ 9 d 0.6667 0.80375(11) -1.6667 0.0153(4) 1.
K3 K1+ 18 f 0.17361(11) 0.8486(1) -1.41781(4) 0.0196(2) 1.
K4 K1+ 6 c 0.3333 0.6667 -1.58423(6) 0.0124(3) 1.
K5 K1+ 3 b 0.3333 0.6667 -1.8333 0.0103(5) 1.
B1 B3+ 18 f 0.1895(5) 0.7739(5) -1.27884(18) 0.0130(13) 1.
B2 B3+ 18 f 0.2051(5) 0.7644(5) -1.51478(16) 0.0077(11) 1.
B3 B3+ 18 f 0.4657(5) 0.8934(4) -1.65037(17) 0.0090(12) 1.
B4 B3+ 18 f 0.6625(5) 1.0818(4) -1.41872(19) 0.0102(10) 1.
B5 B3+ 18 f 0.4733(5) 0.9251(4) -1.89082(17) 0.009(1) 1.
O1 O2- 18 f 0.2726(3) 0.7709(3) -1.48148(10) 0.0099(8) 1.
O2 O2- 18 f 0.1719(3) 0.5642(3) -1.68227(11) 0.0105(8) 1.
O3 O2- 18 f 0.3924(4) 0.8049(2) -1.38753(10) 0.0190(8) 1.
O4 O2- 18 f 0.2859(3) 0.7711(3) -1.76924(11) 0.0156(8) 1.
O5 O2- 18 f 0.5143(3) 0.8539(3) -1.61988(11) 0.0106(7) 1.
O6 O2- 18 f 0.5192(3) 0.8522(3) -1.54137(10) 0.0088(7) 1.
O7 O2- 18 f 0.4951(4) 1.0119(3) -1.64838(11) 0.0256(9) 1.
O8 O2- 18 f 0.6682(3) 0.8061(3) -1.52425(11) 0.0182(9) 1.
O9 O2- 18 f 0.5907(3) 1.0348(3) -1.57861(10) 0.0117(7) 1.
O10 O2- 18 f 0.0974(3) 0.7316(3) -1.74918(10) 0.0124(7) 1.
#End of TTdata_247762-ICSD