
#(C) 2020 by FIZ Karlsruhe - Leibniz Institute for Information Infrastructure.  All rights reserved.
data_248027-ICSD
_database_code_ICSD 248027
_audit_creation_date 2010-08-01
_chemical_name_common 'Tetracadmium bismuth oxide tris(triborate)'
_chemical_formula_structural 'Cd4 Bi O (B O3)3'
_chemical_formula_sum 'B3 Bi1 Cd4 O10'
_chemical_name_structure_type Ca5(BO3)3F
_exptl_crystal_density_diffrn 6.43
_diffrn_ambient_temperature 293.
_citation_title

;
A strong second-harmonic generation material Cd4 Bi O (B O3)3 originating from
3-chromophore asymmetric structures
;
loop_
_citation_id
_citation_journal_full
_citation_year
_citation_journal_volume
_citation_page_first
_citation_page_last
_citation_journal_id_ASTM
primary 'Journal of the American Chemical Society' 2010 132 1508 1509 JACSAT
loop_
_citation_author_citation_id
_citation_author_name
primary 'Zhang Wei Long'
primary 'Cheng Wen Dan'
primary 'Zhang Hao'
primary 'Geng Lei'
primary 'Lin Chen Sheng'
primary 'He Zhang Zhen'
_cell_length_a 8.044(2)
_cell_length_b 15.913(5)
_cell_length_c 3.4891(10)
_cell_angle_alpha 90.
_cell_angle_beta 100.08(2)
_cell_angle_gamma 90.
_cell_volume 439.73
_cell_formula_units_Z 2
_space_group_name_H-M_alt 'C 1 m 1'
_space_group_IT_number 8
loop_
_space_group_symop_id
_space_group_symop_operation_xyz
1 'x, -y, z'
2 'x, y, z'
3 'x+1/2, -y+1/2, z'
4 'x+1/2, y+1/2, z'
loop_
_atom_type_symbol
_atom_type_oxidation_number
Bi3+ 3
Cd2+ 2
O2- -2
B3+ 3
loop_
_atom_site_label
_atom_site_type_symbol
_atom_site_symmetry_multiplicity
_atom_site_Wyckoff_symbol
_atom_site_fract_x
_atom_site_fract_y
_atom_site_fract_z
_atom_site_U_iso_or_equiv
_atom_site_occupancy
Bi1 Bi3+ 2 a 0.06693(13) 0.5 0.5043(2) 0.0262(3) 1
Cd1 Cd2+ 4 b -0.58305(13) 0.61537(7) 1.1672(3) 0.0118(3) 1
Cd2 Cd2+ 4 b -0.20307(15) 0.67551(8) 0.8522(3) 0.0154(3) 1
O1 O2- 4 b -0.0268(17) 0.6478(9) 0.418(4) 0.022(3) 1
O2 O2- 4 b -0.405(2) 0.7276(9) 1.211(4) 0.035(3) 1
O3 O2- 4 b -0.7340(18) 0.6753(10) 1.609(4) 0.031(3) 1
O4 O2- 4 b -0.4063(16) 0.5736(8) 0.737(4) 0.023(3) 1
O5 O2- 2 a -0.146(3) 0.5 0.908(7) 0.035(5) 1
O6 O2- 2 a 0.2453(19) 0.5 0.077(5) 0.011(3) 1
B1 B3+ 4 b -0.387(2) 0.8022(11) 0.424(5) 0.008(3) 1
B2 B3+ 2 a -0.327(3) 0.5 0.767(8) 0.013(5) 1
loop_
_atom_site_aniso_label
_atom_site_aniso_type_symbol
_atom_site_aniso_U_11
_atom_site_aniso_U_22
_atom_site_aniso_U_33
_atom_site_aniso_U_12
_atom_site_aniso_U_13
_atom_site_aniso_U_23
Bi1 Bi3+ 0.0264(5) 0.0310(6) 0.0223(5) 0. 0.0069(4) 0.
Cd1 Cd2+ 0.0113(5) 0.0146(6) 0.0092(5) 0.0000(5) 0.0014(4) 0.0010(4)
Cd2 Cd2+ 0.0157(6) 0.0188(6) 0.0128(6) -0.0006(5) 0.0052(4) -0.0007(5)
O1 O2- 0.027(6) 0.026(6) 0.018(5) 0.000(5) 0.014(5) -0.008(5)
O2 O2- 0.048(7) 0.026(6) 0.037(7) -0.011(6) 0.023(6) -0.013(5)
O3 O2- 0.029(6) 0.050(7) 0.013(5) 0.015(6) 0.004(5) 0.011(5)
O4 O2- 0.025(6) 0.021(6) 0.023(6) -0.002(5) 0.001(5) 0.003(5)
O5 O2- 0.021(7) 0.047(9) 0.034(9) 0. 0.002(7) 0.
O6 O2- 0.010(6) 0.015(7) 0.007(6) 0. -0.001(5) 0.
B1 B3+ 0.010(5) 0.006(5) 0.009(5) 0.006(4) 0.003(4) 0.004(4)
B2 B3+ 0.011(6) 0.017(7) 0.013(6) 0. 0.007(5) 0.
#End of TTdata_248027-ICSD