
#(C) 2020 by FIZ Karlsruhe - Leibniz Institute for Information Infrastructure.  All rights reserved.
data_248147-ICSD
_database_code_ICSD 248147
_audit_creation_date 2011-02-01
_chemical_name_common 'Strontium tetraborate - beta'
_chemical_formula_structural 'Sr (B4 O7)'
_chemical_formula_sum 'B4 O7 Sr1'
_exptl_crystal_density_diffrn 3.35
_diffrn_ambient_temperature 296.
_citation_title
'The trigonal polymorph of strontium tetraborate, beta - Sr B4 O7'
loop_
_citation_id
_citation_journal_full
_citation_year
_citation_journal_volume
_citation_page_first
_citation_page_last
_citation_journal_id_ASTM
primary 'Acta Crystallographica, Section E: Structure Reports Online' 2010 66
i48 i48 ACSEBH
loop_
_citation_author_citation_id
_citation_author_name
primary 'Vasiliev, A.D.'
primary 'Cherepakhin, A.V.'
primary 'Zaitsev, A.I.'
_cell_length_a 17.1450(10)
_cell_length_b 17.1450(10)
_cell_length_c 4.2527(5)
_cell_angle_alpha 90.
_cell_angle_beta 90.
_cell_angle_gamma 120.
_cell_volume 1082.61
_cell_formula_units_Z 9
_space_group_name_H-M_alt 'P 3'
_space_group_IT_number 143
loop_
_space_group_symop_id
_space_group_symop_operation_xyz
1 '-x+y, -x, z'
2 '-y, x-y, z'
3 'x, y, z'
loop_
_atom_type_symbol
_atom_type_oxidation_number
Sr2+ 2
O2- -2
B3+ 3
loop_
_atom_site_label
_atom_site_type_symbol
_atom_site_symmetry_multiplicity
_atom_site_Wyckoff_symbol
_atom_site_fract_x
_atom_site_fract_y
_atom_site_fract_z
_atom_site_U_iso_or_equiv
_atom_site_occupancy
Sr1 Sr2+ 1 a 0. 0. 0.5 0.0106(2) 1
Sr2 Sr2+ 1 c 0.6667 0.3333 0.7047(2) 0.0097(2) 1
Sr3 Sr2+ 1 b 0.3333 0.6667 0.6084(5) 0.01172(15) 1
Sr4 Sr2+ 3 d 0.32408(4) 0.33158(4) 0.7001(4) 0.00732(14) 1
Sr5 Sr2+ 3 d -0.00569(3) 0.33541(4) 0.5183(4) 0.00743(15) 1
O1 O2- 3 d 0.3441(2) 0.5031(2) 0.5634(9) 0.0115(7) 1
O2 O2- 3 d 0.2472(2) 0.3798(2) 0.2476(8) 0.0094(7) 1
O3 O2- 3 d 0.2591(2) 0.5240(2) 0.1833(8) 0.0108(7) 1
O4 O2- 3 d 0.1239(2) 0.3939(2) 0.0012(9) 0.0109(7) 1
O5 O2- 3 d 0.1760(2) 0.5441(2) -0.1939(8) 0.0090(7) 1
O6 O2- 3 d 0.1571(2) 0.1803(2) 0.4810(9) 0.0119(8) 1
O7 O2- 3 d 0.2841(2) 0.2150(2) 0.1685(8) 0.0075(6) 1
O8 O2- 3 d 0.1428(2) 0.0790(2) 0.0952(8) 0.0109(7) 1
O9 O2- 3 d 0.2767(2) 0.0826(2) -0.0917(8) 0.0083(7) 1
O10 O2- 3 d 0.1278(2) -0.0221(2) -0.2863(8) 0.0095(7) 1
O11 O2- 3 d 0.5201(2) 0.3007(2) 0.4426(8) 0.0082(7) 1
O12 O2- 3 d 0.4709(2) 0.4061(2) 0.3108(8) 0.0077(7) 1
O13 O2- 3 d 0.6000(2) 0.4102(2) 0.0726(8) 0.0105(7) 1
O14 O2- 3 d 0.5899(2) 0.5436(2) 0.0455(8) 0.0065(6) 1
O15 O2- 3 d 0.6814(2) 0.5195(2) -0.3106(8) 0.0082(7) 1
O16 O2- 3 d 0.0899(2) 0.2724(2) 0.3487(8) 0.0084(7) 1
O17 O2- 3 d 0.1632(2) 0.2814(2) 0.8498(8) 0.0085(7) 1
O18 O2- 3 d 0.3864(2) 0.1604(2) 0.2995(8) 0.0082(7) 1
O19 O2- 3 d 0.3945(2) 0.2362(2) 0.7992(8) 0.0062(6) 1
O20 O2- 3 d 0.5007(2) 0.5578(2) 0.4336(8) 0.0073(7) 1
O21 O2- 3 d 0.4320(2) 0.4828(2) 0.9349(8) 0.0067(7) 1
B1 B3+ 3 d 0.2862(4) 0.4681(4) 0.3246(14) 0.0079(10) 1
B2 B3+ 3 d 0.1811(3) 0.4849(3) -0.0018(13) 0.0059(10) 1
B3 B3+ 3 d 0.1948(3) 0.1620(3) 0.2422(13) 0.0075(10) 1
B4 B3+ 3 d 0.1853(4) 0.0444(3) -0.0934(13) 0.0071(10) 1
B5 B3+ 3 d 0.5250(3) 0.3704(3) 0.2794(12) 0.0052(9) 1
B6 B3+ 3 d 0.6277(3) 0.4939(3) -0.0547(13) 0.0063(10) 1
B7 B3+ 3 d 0.1537(4) 0.3283(3) 0.1104(13) 0.0048(10) 1
B8 B3+ 3 d 0.1082(3) 0.2266(3) 0.5981(12) 0.0052(10) 1
B9 B3+ 3 d 0.3394(4) 0.1748(4) 0.0454(12) 0.0064(11) 1
B10 B3+ 3 d 0.4409(3) 0.2160(3) 0.5607(12) 0.0063(10) 1
B11 B3+ 3 d 0.4960(4) 0.4991(4) 0.1768(13) 0.0076(12) 1
B12 B3+ 3 d 0.4379(3) 0.5431(3) 0.6829(12) 0.0061(10) 1
loop_
_atom_site_aniso_label
_atom_site_aniso_type_symbol
_atom_site_aniso_U_11
_atom_site_aniso_U_22
_atom_site_aniso_U_33
_atom_site_aniso_U_12
_atom_site_aniso_U_13
_atom_site_aniso_U_23
Sr1 Sr2+ 0.0098(3) 0.0098(3) 0.0121(5) 0.00490(15) 0. 0.
Sr2 Sr2+ 0.0093(3) 0.0093(3) 0.0106(5) 0.00466(16) 0. 0.
Sr3 Sr2+ 0.0100(2) 0.0100(2) 0.0151(4) 0.00502(10) 0. 0.
Sr4 Sr2+ 0.0072(3) 0.0066(3) 0.0083(3) 0.0036(2) 0.0001(3) 0.0014(2)
Sr5 Sr2+ 0.0072(3) 0.0076(3) 0.0082(3) 0.0043(2) 0.0007(2) 0.0015(2)
O1 O2- 0.0055(16) 0.0191(19) 0.0082(17) 0.0048(15) -0.0004(14) -0.0017(14)
O2 O2- 0.0069(16) 0.0074(16) 0.0109(17) 0.0014(13) -0.0039(13) 0.0001(13)
O3 O2- 0.0099(16) 0.0065(16) 0.0141(18) 0.0027(14) -0.0075(14) -0.0033(14)
O4 O2- 0.0090(16) 0.0103(17) 0.0153(19) 0.0062(14) -0.0051(14) -0.0006(14)
O5 O2- 0.0074(16) 0.0100(17) 0.0091(18) 0.0039(14) -0.0009(13) 0.0018(13)
O6 O2- 0.0139(19) 0.0164(18) 0.0101(18) 0.0110(16) 0.0039(14) 0.0042(15)
O7 O2- 0.0080(16) 0.0090(16) 0.0058(16) 0.0046(14) -0.0001(13) -0.0004(13)
O8 O2- 0.0065(16) 0.0099(16) 0.0148(19) 0.0029(14) 0.0034(14) -0.0030(14)
O9 O2- 0.0076(16) 0.0109(16) 0.0081(16) 0.0059(14) 0.0012(13) -0.0006(13)
O10 O2- 0.0087(17) 0.0060(16) 0.0148(19) 0.0044(14) -0.0046(14) -0.0022(14)
O11 O2- 0.0061(16) 0.0095(16) 0.0093(17) 0.0042(14) 0.0016(13) 0.0018(13)
O12 O2- 0.0090(16) 0.0090(16) 0.0069(16) 0.0057(14) 0.0031(13) 0.0025(13)
O13 O2- 0.0104(17) 0.0078(16) 0.0125(18) 0.0039(14) 0.0087(13) 0.0050(13)
O14 O2- 0.0077(15) 0.0062(15) 0.0060(16) 0.0039(13) 0.0001(13) -0.0009(12)
O15 O2- 0.0086(18) 0.0114(18) 0.0048(17) 0.0053(15) 0.0040(14) 0.0046(14)
O16 O2- 0.0069(16) 0.0130(17) 0.0075(16) 0.0066(14) 0.0036(13) 0.0026(13)
O17 O2- 0.0082(16) 0.0092(16) 0.0077(17) 0.0041(14) -0.0004(13) -0.0023(13)
O18 O2- 0.0081(16) 0.0112(16) 0.0079(17) 0.0068(14) -0.0016(13) 0.0003(13)
O19 O2- 0.0089(15) 0.0083(16) 0.0043(16) 0.0065(13) 0.0021(12) 0.0017(12)
O20 O2- 0.0099(16) 0.0099(16) 0.0038(15) 0.0061(14) 0.0024(13) 0.0000(12)
O21 O2- 0.0057(15) 0.0066(15) 0.0076(17) 0.0029(13) -0.0009(12) 0.0029(13)
#End of TTdata_248147-ICSD