
#(C) 2020 by FIZ Karlsruhe - Leibniz Institute for Information Infrastructure.  All rights reserved.
data_248205-ICSD
_database_code_ICSD 248205
_audit_creation_date 2011-02-01
_chemical_name_common 'Rubidium diberyllium phyllo-heptaoxotriborate'
_chemical_formula_structural 'Rb Be2 B3 O7'
_chemical_formula_sum 'B3 Be2 O7 Rb1'
_chemical_name_structure_type KBe2B3O7
_exptl_crystal_density_diffrn 2.75
_diffrn_ambient_temperature 293.
_citation_title

;
Alkaline beryllium borate Na Be B3 O6 and A Be2 B3 O7 (A = K, Rb) as UV
nonlinear optical crystals
;
loop_
_citation_id
_citation_journal_full
_citation_year
_citation_journal_volume
_citation_page_first
_citation_page_last
_citation_journal_id_ASTM
primary 'Journal of the American Chemical Society' 2010 132 8779 8786 JACSAT
loop_
_citation_author_citation_id
_citation_author_name
primary 'Wang Shichao'
primary 'Ye Ning'
primary 'Li Wei'
primary 'Zhao Dan'
_cell_length_a 7.687(4)
_cell_length_b 17.724(9)
_cell_length_c 4.393(2)
_cell_angle_alpha 90
_cell_angle_beta 90
_cell_angle_gamma 90
_cell_volume 598.52
_cell_formula_units_Z 4
_space_group_name_H-M_alt 'P m n 21'
_space_group_IT_number 31
loop_
_space_group_symop_id
_space_group_symop_operation_xyz
1 'x+1/2, -y, z+1/2'
2 '-x+1/2, -y, z+1/2'
3 '-x, y, z'
4 'x, y, z'
loop_
_atom_type_symbol
_atom_type_oxidation_number
Rb1+ 1
Be2+ 2
B3+ 3
O2- -2
loop_
_atom_site_label
_atom_site_type_symbol
_atom_site_symmetry_multiplicity
_atom_site_Wyckoff_symbol
_atom_site_fract_x
_atom_site_fract_y
_atom_site_fract_z
_atom_site_U_iso_or_equiv
_atom_site_occupancy
Rb1 Rb1+ 2 a 1 0.64218(3) 0.44656(12) 0.0179(2) 1
Rb2 Rb1+ 2 a 1.5 0.85076(3) 0.42415(15) 0.0210(2) 1
Be1 Be2+ 4 b 0.6871(6) 0.5402(3) 0.9290(16) 0.0093(10) 1
Be2 Be2+ 4 b 0.8256(7) 0.9632(3) 0.8578(12) 0.0091(12) 1
B1 B3+ 2 a 0.5 0.5190(3) 0.434(2) 0.0063(12) 1
B2 B3+ 2 a 1 0.9912(4) 0.3606(15) 0.0075(15) 1
B3 B3+ 4 b 0.6588(7) 0.6825(3) 1.0173(12) 0.0165(14) 1
B4 B3+ 4 b 0.8367(6) 0.8065(3) 0.9279(18) 0.0182(11) 1
O1 O2- 2 a 0.5 0.5263(2) 0.7440(9) 0.0097(9) 1
O2 O2- 4 b 0.6566(3) 0.51255(16) 1.2819(7) 0.0088(7) 1
O3 O2- 2 a 1 0.9895(2) 0.6743(10) 0.0093(9) 1
O4 O2- 4 b 0.6550(3) 1.00622(17) 0.7083(7) 0.0085(6) 1
O5 O2- 4 b 0.7571(4) 0.62598(14) 0.9224(9) 0.0133(6) 1
O6 O2- 2 a 0.5 0.6690(3) 1.1603(11) 0.0164(10) 1
O7 O2- 4 b 0.6977(4) 0.75778(16) 0.9895(14) 0.0433(13) 1
O8 O2- 2 a 1 0.7740(2) 0.9574(14) 0.0237(10) 1
O9 O2- 4 b 0.7955(4) 0.87553(18) 0.8501(8) 0.0187(8) 1
loop_
_atom_site_aniso_label
_atom_site_aniso_type_symbol
_atom_site_aniso_U_11
_atom_site_aniso_U_22
_atom_site_aniso_U_33
_atom_site_aniso_U_12
_atom_site_aniso_U_13
_atom_site_aniso_U_23
Rb1 Rb1+ 0.0157(3) 0.0250(3) 0.0130(4) 0 0 0.0001(4)
Rb2 Rb1+ 0.0193(3) 0.0225(3) 0.0213(5) 0 0 -0.0047(4)
Be1 Be2+ 0.007(2) 0.013(2) 0.008(2) 0.0005(19) -0.001(3) 0.002(3)
Be2 Be2+ 0.006(2) 0.013(3) 0.008(3) -0.004(2) -0.003(2) -0.002(2)
B1 B3+ 0.003(3) 0.009(3) 0.008(3) 0 0 -0.004(3)
B2 B3+ 0.005(3) 0.009(3) 0.009(4) 0 0 0.000(2)
B3 B3+ 0.012(2) 0.014(2) 0.023(4) -0.005(2) -0.0038(19) 0.004(2)
B4 B3+ 0.014(2) 0.014(2) 0.027(3) 0.0001(19) 0.001(3) -0.004(3)
O1 O2- 0.008(2) 0.016(2) 0.006(2) 0 0 0.0014(17)
O2 O2- 0.0024(14) 0.0165(16) 0.0075(16) 0.0004(13) 0.0012(11) 0.0016(12)
O3 O2- 0.005(2) 0.019(2) 0.005(2) 0 0 -0.0003(18)
O4 O2- 0.0033(15) 0.0180(16) 0.0042(14) 0.0016(13) 0.0013(12) 0.0023(12)
O5 O2- 0.0099(13) 0.0131(13) 0.0168(17) -0.0015(12) 0.0008(16) 0.0013(17)
O6 O2- 0.009(2) 0.021(2) 0.019(2) 0 0 0.003(2)
O7 O2- 0.0121(17) 0.0129(16) 0.105(4) -0.0006(13) 0.021(2) 0.004(2)
O8 O2- 0.011(2) 0.016(2) 0.044(3) 0 0 0.004(3)
O9 O2- 0.0135(16) 0.0148(15) 0.028(2) -0.0012(14) -0.0033(14) -0.0007(14)
#End of TTdata_248205-ICSD