
#(C) 2020 by FIZ Karlsruhe - Leibniz Institute for Information Infrastructure.  All rights reserved.
data_248221-ICSD
_database_code_ICSD 248221
_audit_creation_date 2011-02-01
_chemical_name_common 'Barium antimony(III) thioborate sulfide'
_chemical_formula_structural 'Ba Sb (B S3) S'
_chemical_formula_sum 'B1 Ba1 S4 Sb1'
_exptl_crystal_density_diffrn 3.75
_diffrn_ambient_temperature 293.
_citation_title

;
Ba M (B S3) S (M = Sb, Bi): Two new thioborate compounds with one-dimensional
polymeric chain structure
;
loop_
_citation_id
_citation_journal_full
_citation_year
_citation_journal_volume
_citation_page_first
_citation_page_last
_citation_journal_id_ASTM
primary 'Inorganic Chemistry' 2010 49 6609 6615 INOCAJ
loop_
_citation_author_citation_id
_citation_author_name
primary 'Geng Lei'
primary 'Cheng Wen Dan'
primary 'Zhang Wei Long'
primary 'Lin Chen Sheng'
primary 'Zhang Hao'
primary 'Li Yeyu'
primary 'He Zhang Zhen'
_cell_length_a 9.6898(15)
_cell_length_b 6.2293(13)
_cell_length_c 11.670(2)
_cell_angle_alpha 90.
_cell_angle_beta 90.
_cell_angle_gamma 90.
_cell_volume 704.41
_cell_formula_units_Z 4
_space_group_name_H-M_alt 'P n m a'
_space_group_IT_number 62
loop_
_space_group_symop_id
_space_group_symop_operation_xyz
1 'x+1/2, y, -z+1/2'
2 'x, -y+1/2, z'
3 '-x+1/2, y+1/2, z+1/2'
4 '-x, -y, -z'
5 '-x+1/2, -y, z+1/2'
6 '-x, y+1/2, -z'
7 'x+1/2, -y+1/2, -z+1/2'
8 'x, y, z'
loop_
_atom_type_symbol
_atom_type_oxidation_number
Ba2+ 2
Sb3+ 3
B3+ 3
S2- -2
loop_
_atom_site_label
_atom_site_type_symbol
_atom_site_symmetry_multiplicity
_atom_site_Wyckoff_symbol
_atom_site_fract_x
_atom_site_fract_y
_atom_site_fract_z
_atom_site_U_iso_or_equiv
_atom_site_occupancy
Ba1 Ba2+ 4 c 0.48631(2) 0.25 0.669015(17) 0.01505(10) 1
Sb1 Sb3+ 4 c 0.81099(2) 0.25 0.459670(18) 0.01387(10) 1
B1 B3+ 4 c 0.1912(3) 0.25 0.4514(3) 0.0113(7) 1
S1 S2- 8 d 0.79339(6) -0.00136(9) 0.62923(5) 0.01524(14) 1
S2 S2- 4 c 0.57313(8) 0.25 0.40754(7) 0.01502(18) 1
S3 S2- 4 c 0.17015(9) 0.25 0.60193(7) 0.01771(19) 1
loop_
_atom_site_aniso_label
_atom_site_aniso_type_symbol
_atom_site_aniso_U_11
_atom_site_aniso_U_22
_atom_site_aniso_U_33
_atom_site_aniso_U_12
_atom_site_aniso_U_13
_atom_site_aniso_U_23
Ba1 Ba2+ 0.01078(13) 0.01860(16) 0.01578(14) 0. 0.00027(6) 0.
Sb1 Sb3+ 0.01067(14) 0.01344(16) 0.01749(15) 0. 0.00122(8) 0.
B1 B3+ 0.0105(17) 0.0077(18) 0.0156(17) 0. -0.0029(12) 0.
S1 S2- 0.0193(3) 0.0097(3) 0.0167(3) 0.0010(2) -0.0024(2) -0.0013(2)
S2 S2- 0.0128(4) 0.0153(4) 0.0170(4) 0. -0.0021(3) 0.
S3 S2- 0.0149(4) 0.0237(5) 0.0145(4) 0. 0.0015(3) 0.
#End of TTdata_248221-ICSD