
#(C) 2020 by FIZ Karlsruhe - Leibniz Institute for Information Infrastructure.  All rights reserved.
data_249135-ICSD
_database_code_ICSD 249135
_audit_creation_date 2008-02-01
_chemical_name_common 'Tribarium bis(cyclo-triborate)'
_chemical_formula_structural 'Ba3 (B3 O6)2'
_chemical_formula_sum 'B6 Ba3 O12'
_chemical_name_structure_type BaB2O4(R3c)
_exptl_crystal_density_diffrn 3.85
_diffrn_ambient_temperature 293.
_citation_title 'Meta-Barium borate, II - Ba B2 O4, at 163 and 293 K'
loop_
_citation_id
_citation_journal_full
_citation_year
_citation_journal_volume
_citation_page_first
_citation_page_last
_citation_journal_id_ASTM
primary 'Acta Crystallographica, Section C: Crystal Structure Communications'
2006 62 i73 i75 ACSCEE
loop_
_citation_author_citation_id
_citation_author_name
primary 'Lu Shaofang'
primary 'Huang Zixing'
primary 'Huang Jin Ling'
_cell_length_a 12.531(3)
_cell_length_b 12.531(3)
_cell_length_c 12.721(4)
_cell_angle_alpha 90.
_cell_angle_beta 90.
_cell_angle_gamma 120.
_cell_volume 1729.91
_cell_formula_units_Z 6
_space_group_name_H-M_alt 'R 3 c H'
_space_group_IT_number 161
loop_
_space_group_symop_id
_space_group_symop_operation_xyz
1 '-x+y, y, z+1/2'
2 'x, x-y, z+1/2'
3 '-y, -x, z+1/2'
4 '-x+y, -x, z'
5 '-y, x-y, z'
6 'x, y, z'
7 '-x+y+2/3, y+1/3, z+5/6'
8 'x+2/3, x-y+1/3, z+5/6'
9 '-y+2/3, -x+1/3, z+5/6'
10 '-x+y+2/3, -x+1/3, z+1/3'
11 '-y+2/3, x-y+1/3, z+1/3'
12 'x+2/3, y+1/3, z+1/3'
13 '-x+y+1/3, y+2/3, z+1/6'
14 'x+1/3, x-y+2/3, z+1/6'
15 '-y+1/3, -x+2/3, z+1/6'
16 '-x+y+1/3, -x+2/3, z+2/3'
17 '-y+1/3, x-y+2/3, z+2/3'
18 'x+1/3, y+2/3, z+2/3'
loop_
_atom_type_symbol
_atom_type_oxidation_number
Ba2+ 2
B3+ 3
O2- -2
loop_
_atom_site_label
_atom_site_type_symbol
_atom_site_symmetry_multiplicity
_atom_site_Wyckoff_symbol
_atom_site_fract_x
_atom_site_fract_y
_atom_site_fract_z
_atom_site_U_iso_or_equiv
_atom_site_occupancy
Ba1 Ba2+ 18 b 0.30592(2) 0.33041(3) 0.45106(6) 0.01043(8) 1
B1 B3+ 18 b 0.2318(4) 0.5437(5) 0.4221(4) 0.0116(10) 1
B2 B3+ 18 b 0.1305(5) 0.0438(5) 0.4938(4) 0.0112(10) 1
O1 O2- 18 b 0.1408(3) 0.4291(3) 0.4297(3) 0.0143(6) 1
O2 O2- 18 b 0.3548(3) 0.5695(3) 0.4206(3) 0.0175(8) 1
O3 O2- 18 b 0.2494(3) 0.0860(3) 0.4890(3) 0.0164(7) 1
O4 O2- 18 b 0.0827(3) 0.1239(3) 0.4961(3) 0.0183(8) 1
loop_
_atom_site_aniso_label
_atom_site_aniso_type_symbol
_atom_site_aniso_U_11
_atom_site_aniso_U_22
_atom_site_aniso_U_33
_atom_site_aniso_U_12
_atom_site_aniso_U_13
_atom_site_aniso_U_23
Ba1 Ba2+ 0.00664(15) 0.00716(11) 0.01712(13) 0.00318(13) -0.00076(17)
-0.00056(7)
B1 B3+ 0.007(2) 0.013(2) 0.011(2) 0.003(2) -0.001(2) -0.0024(19)
B2 B3+ 0.010(2) 0.007(2) 0.015(3) 0.0035(19) 0.0002(19) 0.002(2)
O1 O2- 0.0125(14) 0.0079(14) 0.0202(17) 0.0034(12) -0.0018(13) 0.0007(13)
O2 O2- 0.0055(16) 0.0066(16) 0.038(2) 0.0012(13) 0.0005(16) -0.0003(15)
O3 O2- 0.0095(15) 0.0131(14) 0.0257(19) 0.0049(12) -0.0036(13) 0.0024(13)
O4 O2- 0.0089(16) 0.0072(15) 0.039(2) 0.0043(14) -0.0041(15) -0.0002(13)
#End of TTdata_249135-ICSD