
#(C) 2020 by FIZ Karlsruhe - Leibniz Institute for Information Infrastructure.  All rights reserved.
data_249322-ICSD
_database_code_ICSD 249322
_audit_creation_date 2008-02-01
_chemical_name_common 'Dicalcium heptagermanate'
_chemical_formula_structural 'Ca2 Ge7 O16'
_chemical_formula_sum 'Ca2 Ge7 O16'
_chemical_name_structure_type Cd2Ge7O16
_exptl_crystal_density_diffrn 4.7
_diffrn_ambient_temperature 295.
_citation_title 'Dicalcium heptagermanate Ca2 Ge7 O16 revised'
loop_
_citation_id
_citation_journal_full
_citation_year
_citation_journal_volume
_citation_page_first
_citation_page_last
_citation_journal_id_ASTM
primary 'Acta Crystallographica, Section C: Crystal Structure Communications'
2007 63 i47 i50 ACSCEE
loop_
_citation_author_citation_id
_citation_author_name
primary 'Redhammer, G.J.'
primary 'Roth, G.'
primary 'Amthauer, G.'
_cell_length_a 11.3391(6)
_cell_length_b 11.3391(6)
_cell_length_c 4.6371(2)
_cell_angle_alpha 90
_cell_angle_beta 90
_cell_angle_gamma 90
_cell_volume 596.22
_cell_formula_units_Z 2
_space_group_name_H-M_alt 'P -4 b 2'
_space_group_IT_number 117
loop_
_space_group_symop_id
_space_group_symop_operation_xyz
1 '-y+1/2, -x+1/2, -z'
2 'y, -x, -z'
3 'y+1/2, x+1/2, -z'
4 '-y, x, -z'
5 'x+1/2, -y+1/2, z'
6 '-x, -y, z'
7 '-x+1/2, y+1/2, z'
8 'x, y, z'
loop_
_atom_type_symbol
_atom_type_oxidation_number
Ge4+ 4
Ca2+ 2
O2- -2
loop_
_atom_site_label
_atom_site_type_symbol
_atom_site_symmetry_multiplicity
_atom_site_Wyckoff_symbol
_atom_site_fract_x
_atom_site_fract_y
_atom_site_fract_z
_atom_site_U_iso_or_equiv
_atom_site_occupancy
Ge1 Ge4+ 8 i 0.31224(3) 0.43357(3) 0.48963(12) 0.00708(14) 1
Ge2 Ge4+ 4 g 0.13344(3) 0.36656(3) 0 0.00658(15) 1
Ge3 Ge4+ 2 d 0 0.5 0.5 0.00700(18) 1
Ca1 Ca2+ 4 g 0.16515(6) 0.66515(6) 1 0.0105(2) 1
O1 O2- 8 i 0.3594(3) 0.5680(3) 0.3397(7) 0.0116(7) 1
O2 O2- 8 i 0.2653(3) 0.3302(3) 0.2311(7) 0.0092(6) 1
O3 O2- 8 i 0.2192(3) 0.4722(3) 0.7748(6) 0.0087(6) 1
O4 O2- 8 i 0.1160(3) 0.4989(3) 0.2524(6) 0.0082(6) 1
loop_
_atom_site_aniso_label
_atom_site_aniso_type_symbol
_atom_site_aniso_U_11
_atom_site_aniso_U_22
_atom_site_aniso_U_33
_atom_site_aniso_U_12
_atom_site_aniso_U_13
_atom_site_aniso_U_23
Ge1 Ge4+ 0.0075(2) 0.0066(2) 0.0072(2) -0.00045(13) 0.0011(3) -0.0004(2)
Ge2 Ge4+ 0.00643(19) 0.00643(19) 0.0069(2) 0.00044(17) 0.0001(2) 0.0001(2)
Ge3 Ge4+ 0.0071(2) 0.0071(2) 0.0068(3) 0.0007(2) 0 0
Ca1 Ca2+ 0.0099(3) 0.0099(3) 0.0116(5) -0.0036(4) 0.0022(6) -0.0022(6)
O1 O2- 0.0130(16) 0.0083(15) 0.0133(15) -0.0047(12) 0.0014(12) -0.0004(12)
O2 O2- 0.0092(14) 0.0075(13) 0.0108(14) 0.0014(11) -0.0024(12) 0.0009(12)
O3 O2- 0.0086(14) 0.0098(14) 0.0078(12) -0.0011(12) 0.0023(12) 0.0003(11)
O4 O2- 0.0050(13) 0.0100(14) 0.0097(15) -0.0011(9) 0.0027(11) -0.0008(13)
#End of TTdata_249322-ICSD