
#(C) 2020 by FIZ Karlsruhe - Leibniz Institute for Information Infrastructure.  All rights reserved.
data_249461-ICSD
_database_code_ICSD 249461
_audit_creation_date 2008-08-01
_chemical_name_common 'Thallium bismuth hexathio-duo-diphosphate(IV)'
_chemical_formula_structural 'Tl Bi (P2 S6)'
_chemical_formula_sum 'Bi1 P2 S6 Tl1'
_chemical_name_structure_type KSbP2Se6
_exptl_crystal_density_diffrn 4.66
_diffrn_ambient_temperature 298.
_citation_title

;
Wide compositional and structural diversity in the system Tl/Bi/P/Q (Q = S,
Se) and observation of vicinal P-Tl J coupling in the solid state
;
loop_
_citation_id
_citation_journal_full
_citation_year
_citation_journal_volume
_citation_page_first
_citation_page_last
_citation_journal_id_ASTM
primary 'Inorganic Chemistry' 2007 46 3632 3644 INOCAJ
loop_
_citation_author_citation_id
_citation_author_name
primary 'Gave, M.A.'
primary 'Malliakas, C.D.'
primary 'Weliky, D.P.'
primary 'Kanatzidis, M.G.'
_cell_length_a 6.5967(12)
_cell_length_b 7.3749(14)
_cell_length_c 9.7911(18)
_cell_angle_alpha 90.
_cell_angle_beta 91.270(3)
_cell_angle_gamma 90.
_cell_volume 476.22
_cell_formula_units_Z 2
_space_group_name_H-M_alt 'P 1 21 1'
_space_group_IT_number 4
loop_
_space_group_symop_id
_space_group_symop_operation_xyz
1 '-x, y+1/2, -z'
2 'x, y, z'
loop_
_atom_type_symbol
_atom_type_oxidation_number
Tl1+ 1
Bi3+ 3
P4+ 4
S2- -2
loop_
_atom_site_label
_atom_site_type_symbol
_atom_site_symmetry_multiplicity
_atom_site_Wyckoff_symbol
_atom_site_fract_x
_atom_site_fract_y
_atom_site_fract_z
_atom_site_U_iso_or_equiv
_atom_site_occupancy
Tl1 Tl1+ 2 a 0.19553(7) 0.15122(7) 0.00024(5) 0.01897(18) 1
Bi1 Bi3+ 2 a -0.70584(7) 0.40297(6) -0.51929(4) 0.01303(18) 1
P1 P4+ 2 a -0.3002(4) 0.1370(5) -0.1971(3) 0.0102(7) 1
P2 P4+ 2 a -0.1918(5) 0.3652(4) -0.3242(3) 0.0079(8) 1
S1 S2- 2 a -0.4433(4) 0.5538(4) -0.6965(3) 0.0115(7) 1
S2 S2- 2 a 0.3277(5) -0.2817(4) 0.0071(3) 0.0135(8) 1
S3 S2- 2 a -0.8419(5) 0.7509(4) -0.4855(3) 0.0107(7) 1
S4 S2- 2 a 0.4177(4) 0.0532(4) 0.3228(3) 0.0098(7) 1
S5 S2- 2 a 0.0843(5) 0.4454(4) 0.2305(3) 0.0127(7) 1
S6 S2- 2 a -0.9275(5) 0.4532(4) -0.2443(3) 0.0111(7) 1
loop_
_atom_site_aniso_label
_atom_site_aniso_type_symbol
_atom_site_aniso_U_11
_atom_site_aniso_U_22
_atom_site_aniso_U_33
_atom_site_aniso_U_12
_atom_site_aniso_U_13
_atom_site_aniso_U_23
Tl1 Tl1+ 0.0175(3) 0.0222(3) 0.0172(3) 0.0004(3) 0.0001(2) -0.0001(2)
Bi1 Bi3+ 0.0134(3) 0.0114(3) 0.0144(3) 0.0006(2) 0.00182(19) 0.0027(2)
P1 P4+ 0.0086(16) 0.0114(16) 0.0106(16) -0.0003(15) 0.0021(13) -0.0005(15)
P2 P4+ 0.0079(17) 0.006(2) 0.0094(17) -0.0013(12) 0.0019(13) 0.0001(13)
S1 S2- 0.0057(16) 0.0146(15) 0.0143(17) 0.0017(14) 0.0017(13) 0.0029(14)
S2 S2- 0.0167(18) 0.0141(17) 0.0100(17) 0.0012(14) 0.0038(14) -0.0008(13)
S3 S2- 0.0130(16) 0.0097(17) 0.0095(17) 0.0025(13) 0.0007(13) 0.0006(12)
S4 S2- 0.0077(16) 0.0068(14) 0.0148(17) -0.0031(13) 0.0016(12) -0.0007(13)
S5 S2- 0.0123(16) 0.0120(19) 0.0136(17) -0.0053(13) -0.0006(13) 0.0026(13)
S6 S2- 0.0077(15) 0.0116(18) 0.0141(17) -0.0021(12) -0.0006(12) -0.0009(12)
#End of TTdata_249461-ICSD