
#(C) 2020 by FIZ Karlsruhe - Leibniz Institute for Information Infrastructure.  All rights reserved.
data_249471-ICSD
_database_code_ICSD 249471
_audit_creation_date 2008-08-01
_chemical_name_common 'Dipotassium gallodecaoxopentaborate tetrahydrate'
_chemical_formula_structural 'K2 (Ga (B5 O10)) (H2 O)4'
_chemical_formula_sum 'H8 B5 Ga1 K2 O14'
_chemical_name_structure_type K2GaB5O10(H2O)4
_exptl_crystal_density_diffrn 2.14
_diffrn_ambient_temperature 291.
_citation_title

;
K2 [Ga (B5 O10)] * 4 (H2 O): The first chiral zeolite-like galloborate with
large odd 11-ring channels
;
loop_
_citation_id
_citation_journal_full
_citation_year
_citation_journal_volume
_citation_page_first
_citation_page_last
_citation_journal_id_ASTM
primary 'Inorganic Chemistry' 2007 46 2965 2967 INOCAJ
loop_
_citation_author_citation_id
_citation_author_name
primary 'Liu Zhi Hong'
primary 'Yang Ping'
primary 'Li Ping'
_cell_length_a 10.3798(7)
_cell_length_b 9.3934(7)
_cell_length_c 13.8051(10)
_cell_angle_alpha 90.
_cell_angle_beta 90.
_cell_angle_gamma 90.
_cell_volume 1346.02
_cell_formula_units_Z 4
_space_group_name_H-M_alt 'C 2 2 21'
_space_group_IT_number 20
loop_
_space_group_symop_id
_space_group_symop_operation_xyz
1 '-x, y, -z+1/2'
2 '-x, -y, z+1/2'
3 'x, -y, -z'
4 'x, y, z'
5 '-x+1/2, y+1/2, -z+1/2'
6 '-x+1/2, -y+1/2, z+1/2'
7 'x+1/2, -y+1/2, -z'
8 'x+1/2, y+1/2, z'
loop_
_atom_type_symbol
_atom_type_oxidation_number
Ga3+ 3
K1+ 1
B3+ 3
O2- -2
H1+ 1
O2- -2
H1+ 1
O2- -2
H1+ 1
loop_
_atom_site_label
_atom_site_type_symbol
_atom_site_symmetry_multiplicity
_atom_site_Wyckoff_symbol
_atom_site_fract_x
_atom_site_fract_y
_atom_site_fract_z
_atom_site_U_iso_or_equiv
_atom_site_occupancy
Ga1 Ga3+ 4 a 0.87190(3) 1. 0.5 0.01330(6) 1
K1 K1+ 8 c 0.65580(6) 0.74876(5) 0.35480(4) 0.03270(13) 1
B1 B3+ 8 c 1.0218(3) 0.7786(2) 0.42092(18) 0.0190(5) 1
B2 B3+ 4 b 1. 0.6999(3) 0.25 0.0172(7) 1
B3 B3+ 8 c 0.8264(2) 0.6029(2) 0.13240(16) 0.0159(5) 1
O1 O2- 8 c 0.99096(16) 0.86048(16) 0.49361(13) 0.0310(4) 1
O2 O2- 8 c 1.12851(19) 0.68701(16) 0.44044(11) 0.0284(4) 1
O3 O2- 8 c 0.95846(16) 0.78103(15) 0.33249(11) 0.0205(4) 1
O4 O2- 8 c 0.87745(16) 0.61601(14) 0.22471(10) 0.0210(4) 1
O5 O2- 8 c 0.73183(13) 0.50922(16) 0.11219(9) 0.0190(3) 1
O6 O2- 8 c 0.6226(4) 0.8794(2) 0.17242(16) 0.0807(11) 1
H1 H1+ 8 c 0.7118 0.898 0.1682 0.121 1
H2 H1+ 8 c 0.5803 0.9483 0.1847 0.121 1
O7 O2- 4 b 0.5 0.5611(3) 0.25 0.0408(7) 1
H3 H1+ 8 c 0.547 0.5085 0.2171 0.061 1
O8 O2- 4 a 0.7786(4) 0.5 0.5 0.1288(19) 1
H4 H1+ 8 c 0.8276 0.529 0.5447 0.193 1
loop_
_atom_site_aniso_label
_atom_site_aniso_type_symbol
_atom_site_aniso_U_11
_atom_site_aniso_U_22
_atom_site_aniso_U_33
_atom_site_aniso_U_12
_atom_site_aniso_U_13
_atom_site_aniso_U_23
Ga1 Ga3+ 0.02087(12) 0.00726(12) 0.01176(12) 0. 0. -0.00227(12)
K1 K1+ 0.0399(3) 0.0271(3) 0.0312(3) -0.0070(2) 0.0035(2) -0.0047(2)
B1 B3+ 0.0269(11) 0.0127(9) 0.0174(11) 0.0062(9) -0.0016(10) -0.0004(9)
B2 B3+ 0.0254(17) 0.0145(14) 0.0117(14) 0. -0.0060(13) 0.
B3 B3+ 0.0212(10) 0.0108(9) 0.0158(10) -0.0006(8) -0.0020(9) -0.0002(8)
O1 O2- 0.0535(8) 0.0221(7) 0.0175(7) 0.0247(6) -0.0103(9) -0.0081(7)
O2 O2- 0.0517(10) 0.0186(7) 0.0151(7) 0.0195(7) -0.0108(8) -0.0064(5)
O3 O2- 0.0325(8) 0.0104(6) 0.0186(7) 0.0082(6) -0.0061(6) -0.0032(6)
O4 O2- 0.0377(8) 0.0122(6) 0.0132(7) -0.0077(7) -0.0043(7) 0.0025(5)
O5 O2- 0.0329(7) 0.0090(6) 0.0152(6) -0.0068(8) -0.0050(5) 0.0022(6)
O6 O2- 0.163(3) 0.0304(11) 0.0491(15) 0.0109(17) 0.0238(18) -0.0034(11)
O7 O2- 0.0656(18) 0.0171(10) 0.0396(14) 0. 0.0206(13) 0.
O8 O2- 0.063(2) 0.198(5) 0.125(3) 0. 0. -0.102(4)
#End of TTdata_249471-ICSD