
#(C) 2020 by FIZ Karlsruhe - Leibniz Institute for Information Infrastructure.  All rights reserved.
data_249872-ICSD
_database_code_ICSD 249872
_audit_creation_date 2010-02-01
_chemical_name_common 'Dilithium cadmium germanium tetrasulfide'
_chemical_formula_structural 'Li2 Cd Ge S4'
_chemical_formula_sum 'Cd1 Ge1 Li2 S4'
_chemical_name_structure_type Enargite#Cu3AsS4
_exptl_crystal_density_diffrn 3.22
_diffrn_ambient_temperature 296.
_citation_title

;
Second-harmonic generation and crystal structure of the diamond-like
semiconductors Li2 Cd Ge S4 and Li2 Cd Sn S4
;
loop_
_citation_id
_citation_journal_full
_citation_year
_citation_journal_volume
_citation_page_first
_citation_page_last
_citation_journal_id_ASTM
primary 'Inorganic Chemistry' 2009 48 7516 7518 INOCAJ
loop_
_citation_author_citation_id
_citation_author_name
primary 'Lekse, J.W.'
primary 'Moreau, M.A.'
primary 'McNerny, K.L.'
primary 'Yeon Jeong Ho'
primary 'Halasyamani, P.S.'
primary 'Aitken, J.A.'
_cell_length_a 7.7374(1)
_cell_length_b 6.8498(1)
_cell_length_c 6.3688(1)
_cell_angle_alpha 90.
_cell_angle_beta 90.
_cell_angle_gamma 90.
_cell_volume 337.54
_cell_formula_units_Z 2
_space_group_name_H-M_alt 'P m n 21'
_space_group_IT_number 31
loop_
_space_group_symop_id
_space_group_symop_operation_xyz
1 'x+1/2, -y, z+1/2'
2 '-x+1/2, -y, z+1/2'
3 '-x, y, z'
4 'x, y, z'
loop_
_atom_type_symbol
_atom_type_oxidation_number
Cd2+ 2
Ge4+ 4
Li1+ 1
S2- -2
loop_
_atom_site_label
_atom_site_type_symbol
_atom_site_symmetry_multiplicity
_atom_site_Wyckoff_symbol
_atom_site_fract_x
_atom_site_fract_y
_atom_site_fract_z
_atom_site_U_iso_or_equiv
_atom_site_occupancy
Cd1 Cd2+ 2 a 1. 0.85255(3) 0.37172(4) 0.01858(6) 1
Ge1 Ge4+ 2 a 0.5 0.82613(4) 0.37507(9) 0.01136(7) 1
Li1 Li1+ 4 b 0.7546(5) 0.6689(5) 0.877(3) 0.0223(8) 1
S1 S2- 2 a 1. 0.86589(12) 0.77174(18) 0.01475(18) 1
S2 S2- 4 b 0.72929(7) 0.66872(8) 0.25376(13) 0.01480(12) 1
S3 S2- 2 a 0.5 0.80719(13) 0.72108(18) 0.01525(19) 1
loop_
_atom_site_aniso_label
_atom_site_aniso_type_symbol
_atom_site_aniso_U_11
_atom_site_aniso_U_22
_atom_site_aniso_U_33
_atom_site_aniso_U_12
_atom_site_aniso_U_13
_atom_site_aniso_U_23
Cd1 Cd2+ 0.01769(10) 0.01987(11) 0.01819(13) 0. 0. 0.00041(18)
Ge1 Ge4+ 0.01081(12) 0.01218(14) 0.01109(17) 0. 0. 0.0004(3)
Li1 Li1+ 0.0199(15) 0.0238(18) 0.023(2) 0.0038(14) -0.004(2) -0.010(4)
S1 S2- 0.0180(4) 0.0126(4) 0.0136(5) 0. 0. -0.0023(4)
S2 S2- 0.0124(2) 0.0155(3) 0.0164(3) 0.0016(2) 0.0017(3) -0.0022(3)
S3 S2- 0.0172(4) 0.0166(4) 0.0119(5) 0. 0. 0.0003(4)
#End of TTdata_249872-ICSD