
#(C) 2020 by FIZ Karlsruhe - Leibniz Institute for Information Infrastructure.  All rights reserved.
data_250123-ICSD
_database_code_ICSD 250123
_audit_creation_date 2004-10-01
_chemical_name_common 'Trilead digallium tetragermanium oxide'
_chemical_formula_structural 'Pb3 Ga2 Ge4 O14'
_chemical_formula_sum 'Ga2 Ge4 O14 Pb3'
_chemical_name_structure_type Ca3(Ga2Ge)Ge3O14
_exptl_crystal_density_diffrn 6.91
_citation_title

;
The growth and structure of Pb3 Ga2 Ge4 O14 and Ba3 Ga2 Ge4 O14 single
crystals
;
loop_
_citation_id
_citation_journal_full
_citation_year
_citation_journal_volume
_citation_page_first
_citation_page_last
_citation_journal_id_ASTM
primary Kristallografiya 2004 49 325 328 KRISAJ
loop_
_citation_author_citation_id
_citation_author_name
primary 'Bezmaternykh, L.N.'
primary 'Vasil'ev, A.D. (Vasilev, A.D.)'
primary 'Gudim, I.A.'
primary 'Temerov, V.L.'
_cell_length_a 8.405(1)
_cell_length_b 8.405(1)
_cell_length_c 5.0112(7)
_cell_angle_alpha 90
_cell_angle_beta 90
_cell_angle_gamma 120
_cell_volume 306.58
_cell_formula_units_Z 1
_space_group_name_H-M_alt 'P 3 2 1'
_space_group_IT_number 150
loop_
_space_group_symop_id
_space_group_symop_operation_xyz
1 'x-y, -y, -z'
2 '-x, -x+y, -z'
3 'y, x, -z'
4 '-x+y, -x, z'
5 '-y, x-y, z'
6 'x, y, z'
loop_
_atom_type_symbol
_atom_type_oxidation_number
Pb2+ 2
Ga3+ 3
Ge4+ 4
O2- -2
loop_
_atom_site_label
_atom_site_type_symbol
_atom_site_symmetry_multiplicity
_atom_site_Wyckoff_symbol
_atom_site_fract_x
_atom_site_fract_y
_atom_site_fract_z
_atom_site_U_iso_or_equiv
_atom_site_occupancy
Pb1 Pb2+ 3 e 0.5943(2) 0 0 0.0158(4) 1.
Ga1 Ga3+ 2 d 0.6667 0.3333 0.4872(7) 0.0054(8) 1.
Ge1 Ge4+ 1 a 0 0 0 0.010(1) 1.
Ge2 Ge4+ 3 f 0.2406(3) 0 0.5 0.0077(7) 1.
O1 O2- 2 d 0.6667 0.3333 0.826(5) 0.016(5) 1.
O2 O2- 6 g 0.715(2) 0.547(2) 0.345(3) 0.019(3) 1.
O3 O2- 6 g 0.207(2) 0.119(2) 0.773(3) 0.017(4) 1.
#End of TTdata_250123-ICSD