
#(C) 2020 by FIZ Karlsruhe - Leibniz Institute for Information Infrastructure.  All rights reserved.
data_250124-ICSD
_database_code_ICSD 250124
_audit_creation_date 2004-10-01
_chemical_name_common 'Tribarium digallium tetragermanium oxide'
_chemical_formula_structural 'Ba3 Ga2 Ge4 O14'
_chemical_formula_sum 'Ba3 Ga2 Ge4 O14'
_chemical_name_structure_type Ca3(Ga2Ge)Ge3O14
_exptl_crystal_density_diffrn 5.37
_citation_title

;
The growth and structure of Pb3 Ga2 Ge4 O14 and Ba3 Ga2 Ge4 O14 single
crystals
;
loop_
_citation_id
_citation_journal_full
_citation_year
_citation_journal_volume
_citation_page_first
_citation_page_last
_citation_journal_id_ASTM
primary Kristallografiya 2004 49 325 328 KRISAJ
loop_
_citation_author_citation_id
_citation_author_name
primary 'Bezmaternykh, L.N.'
primary 'Vasil'ev, A.D. (Vasilev, A.D.)'
primary 'Gudim, I.A.'
primary 'Temerov, V.L.'
_cell_length_a 8.367(2)
_cell_length_b 8.367(2)
_cell_length_c 5.4397(8)
_cell_angle_alpha 90
_cell_angle_beta 90
_cell_angle_gamma 120
_cell_volume 329.8
_cell_formula_units_Z 1
_space_group_name_H-M_alt 'P 3 2 1'
_space_group_IT_number 150
loop_
_space_group_symop_id
_space_group_symop_operation_xyz
1 'x-y, -y, -z'
2 '-x, -x+y, -z'
3 'y, x, -z'
4 '-x+y, -x, z'
5 '-y, x-y, z'
6 'x, y, z'
loop_
_atom_type_symbol
_atom_type_oxidation_number
Ba2+ 2
Ga3+ 3
Ge4+ 4
O2- -2
loop_
_atom_site_label
_atom_site_type_symbol
_atom_site_symmetry_multiplicity
_atom_site_Wyckoff_symbol
_atom_site_fract_x
_atom_site_fract_y
_atom_site_fract_z
_atom_site_U_iso_or_equiv
_atom_site_occupancy
Ba1 Ba2+ 3 e 0.5836(3) 0 0 0.0252(6) 1.
Ga1 Ga3+ 2 d 0.6667 0.3333 0.4878(6) 0.0046(7) 1.
Ge1 Ge4+ 1 a 0 0 0 0.048(2) 1.
Ge2 Ge4+ 3 f 0.2435(4) 0 0.5 0.042(1) 1.
O1 O2- 2 d 0.6667 0.3333 0.796(4) 0.020(5) 1.
O2 O2- 6 g 0.703(2) 0.541(2) 0.355(3) 0.022(3) 1.
O3 O2- 6 g 0.207(3) 0.118(3) 0.751(5) 0.060(10) 1.
#End of TTdata_250124-ICSD