
#(C) 2020 by FIZ Karlsruhe - Leibniz Institute for Information Infrastructure.  All rights reserved.
data_250323-ICSD
_database_code_ICSD 250323
_audit_creation_date 2006-10-01
_chemical_name_common 'Calcium tetrahydroxoundecaoxooctaborate'
_chemical_formula_structural 'Ca (B8 O11 (O H)4)'
_chemical_formula_sum 'H4 B8 Ca1 O15'
_chemical_name_structure_type SrB8O11(OH)4
_exptl_crystal_density_diffrn 2.15
_citation_title

;
Refined crystal structure of Ca (B8 O11 (O H)4) - a synthetic calcium analog
of strontioborite
;
loop_
_citation_id
_citation_journal_full
_citation_year
_citation_journal_volume
_citation_page_first
_citation_page_last
_citation_journal_id_ASTM
primary Kristallografiya 2005 50 827 833 KRISAJ
loop_
_citation_author_citation_id
_citation_author_name
primary 'Yamnova, N.A.'
primary 'Egorov Tismenko, Yu.K.'
primary 'Zubkova, N.V.'
primary 'Dimitrova, O.V.'
primary 'Kantor, A.P.'
_cell_length_a 7.4480(5)
_cell_length_b 8.2627(5)
_cell_length_c 9.8102(6)
_cell_angle_alpha 90.000(0)
_cell_angle_beta 108.331(1)
_cell_angle_gamma 90.000(0)
_cell_volume 573.09
_cell_formula_units_Z 2
_space_group_name_H-M_alt 'P 1 21 1'
_space_group_IT_number 4
loop_
_space_group_symop_id
_space_group_symop_operation_xyz
1 '-x, y+1/2, -z'
2 'x, y, z'
loop_
_atom_type_symbol
_atom_type_oxidation_number
Ca2+ 2
B3+ 3
O2- -2
H1+ 1
loop_
_atom_site_label
_atom_site_type_symbol
_atom_site_symmetry_multiplicity
_atom_site_Wyckoff_symbol
_atom_site_fract_x
_atom_site_fract_y
_atom_site_fract_z
_atom_site_U_iso_or_equiv
_atom_site_occupancy
Ca1 Ca2+ 2 a 0.09925(8) 0.39454(8) 0.27803(6) 0.0138(1) 1
B1 B3+ 2 a 0.0881(5) 0.4871(4) -0.0957(4) 0.0110(6) 1
B2 B3+ 2 a 0.0932(5) 0.4872(4) 0.6447(4) 0.0104(6) 1
B3 B3+ 2 a -0.0118(5) 0.2261(4) 0.5143(4) 0.0101(6) 1
B4 B3+ 2 a 0.1243(5) 0.7725(4) 0.2817(4) 0.0101(6) 1
B5 B3+ 2 a -0.0342(5) 0.2355(4) -0.0192(4) 0.0107(6) 1
B6 B3+ 2 a 0.4112(5) 0.8686(5) 0.4782(4) 0.0171(7) 1
B7 B3+ 2 a 0.3885(5) 0.4837(5) 0.8511(4) 0.0169(7) 1
B8 B3+ 2 a -0.4002(5) 0.3815(6) 0.2729(4) 0.0182(7) 1
O1 O2- 2 a 0.0258(3) 0.3911(3) 0.0050(2) 0.0131(4) 1
O2 O2- 2 a 0.0605(3) 0.3788(3) 0.5233(2) 0.0124(4) 1
O3 O2- 2 a 0.0170(3) 0.4132(3) -0.2436(2) 0.0108(4) 1
O4 O2- 2 a 0.0749(3) 0.6644(3) 0.3810(2) 0.0119(4) 1
O5 O2- 2 a 0.1064(3) 0.6759(3) 0.1545(2) 0.0129(4) 1
O6 O2- 2 a -0.0173(3) 0.1512(3) 0.1025(2) 0.0135(4) 1
O7 O2- 2 a -0.2713(3) 0.4107(4) 0.2023(2) 0.0223(5) 1
O8 O2- 2 a 0.3135(3) 0.8404(3) 0.3387(3) 0.0162(5) 1
O9 O2- 2 a -0.0028(3) 0.1428(3) 0.3967(2) 0.0120(4) 1
O10 O2- 2 a 0.2985(3) 0.5039(3) 0.7094(2) 0.0149(5) 1
O11 O2- 2 a 0.2936(3) 0.4825(3) -0.0513(2) 0.0179(5) 1
O12 O2- 2 a 0.3273(3) 0.8558(3) 0.5831(2) 0.0202(6) 1
O13 O2- 2 a 0.4039(3) 0.4167(4) 0.4820(3) 0.0356(8) 1
O14 O2- 2 a 0.5799(3) 0.4600(4) 0.9050(3) 0.0357(8) 1
O15 O2- 2 a 0.4088(3) 0.3769(4) 0.2095(3) 0.0291(6) 1
H1 H1+ 2 a 0.382(4) 0.415(4) 0.121(3) 0.05 1
H2 H1+ 2 a -0.313(4) 0.415(4) 0.113(3) 0.05 1
H3 H1+ 2 a 0.382(5) 0.451(4) 0.557(4) 0.05 1
H4 H1+ 2 a 0.615(5) 0.446(4) 0.836(4) 0.05 1
loop_
_atom_site_aniso_label
_atom_site_aniso_type_symbol
_atom_site_aniso_U_11
_atom_site_aniso_U_22
_atom_site_aniso_U_33
_atom_site_aniso_U_12
_atom_site_aniso_U_13
_atom_site_aniso_U_23
Ca1 Ca2+ 0.0154(3) 0.0123(3) 0.0141(3) 0.0008(3) 0.0053(2) 0.0002(3)
B1 B3+ 0.0153(16) 0.0084(15) 0.0104(15) -0.0005(12) 0.0057(12) 0.0015(12)
B2 B3+ 0.0136(16) 0.0089(15) 0.0082(15) -0.0014(12) 0.0025(12) 0.0023(12)
B3 B3+ 0.0102(15) 0.0068(15) 0.0134(16) 0.0021(11) 0.0036(12) 0.0002(12)
B4 B3+ 0.0103(15) 0.0097(15) 0.0101(15) 0.0007(12) 0.0029(12) 0.0023(12)
B5 B3+ 0.0094(15) 0.0105(15) 0.0137(16) 0.0017(12) 0.0059(13) 0.0002(12)
B6 B3+ 0.0134(15) 0.023(2) 0.0143(16) -0.0036(14) 0.0038(13) -0.0001(14)
B7 B3+ 0.0153(17) 0.0175(18) 0.0181(18) 0.0023(14) 0.0057(14) -0.0001(14)
B8 B3+ 0.0165(14) 0.0230(19) 0.0163(16) 0.0026(17) 0.0068(12) 0.0005(16)
O1 O2- 0.0193(10) 0.0073(9) 0.0142(9) -0.0015(11) 0.0074(8) 0.0003(10)
O2 O2- 0.0178(10) 0.0079(11) 0.0125(10) -0.0025(10) 0.0063(8) -0.0010(9)
O3 O2- 0.0181(10) 0.0057(10) 0.0105(9) -0.0021(9) 0.0073(8) -0.0001(8)
O4 O2- 0.0179(11) 0.0067(10) 0.0129(11) 0.0011(8) 0.0074(9) 0.0012(8)
O5 O2- 0.0174(11) 0.0106(11) 0.0107(11) 0.0036(8) 0.0045(9) -0.0003(8)
O6 O2- 0.0222(11) 0.0075(10) 0.0117(11) -0.0019(9) 0.0065(9) 0.0006(8)
O7 O2- 0.0182(11) 0.0362(15) 0.0137(10) 0.0052(11) 0.0068(9) 0.0037(12)
O8 O2- 0.0120(10) 0.0204(12) 0.0162(12) -0.0035(8) 0.0043(9) -0.0012(8)
O9 O2- 0.0149(11) 0.0097(10) 0.0129(11) -0.0019(9) 0.0061(9) -0.0017(8)
O10 O2- 0.0111(10) 0.0185(11) 0.0160(11) -0.0003(8) 0.0056(9) 0.0010(9)
O11 O2- 0.0123(11) 0.0304(14) 0.0108(11) 0.0024(9) 0.0036(9) -0.0004(10)
O12 O2- 0.0124(10) 0.0355(16) 0.0132(11) -0.0067(9) 0.0050(8) -0.0025(9)
O13 O2- 0.0173(12) 0.074(2) 0.0156(12) 0.0168(14) 0.0054(9) -0.0013(15)
O14 O2- 0.0149(11) 0.0097(10) 0.0129(11) -0.0019(9) 0.0061(9) -0.0017(8)
O15 O2- 0.0163(11) 0.0555(19) 0.0143(11) 0.0037(13) 0.0033(9) 0.0099(14)
#End of TTdata_250323-ICSD