
#(C) 2020 by FIZ Karlsruhe - Leibniz Institute for Information Infrastructure.  All rights reserved.
data_250446-ICSD
_database_code_ICSD 250446
_audit_creation_date 2008-02-01
_chemical_name_common 'Tetrastrontium tetradecaborate'
_chemical_formula_structural 'Sr4 (B14 O25)'
_chemical_formula_sum 'B14 O25 Sr4'
_exptl_crystal_density_diffrn 3.26
_citation_title
'Synthesis and crystal structure of strontium borate Sr4 B14 O25'
loop_
_citation_id
_citation_journal_full
_citation_year
_citation_journal_volume
_citation_page_first
_citation_page_last
_citation_journal_id_ASTM
primary 'Zhurnal Neorganicheskoi Khimii' 2007 52 907 911 ZNOKAQ
loop_
_citation_author_citation_id
_citation_author_name
primary 'Lapshin, A.E.'
primary 'Litovchik, E.O.'
primary 'Polyakova, I.G.'
primary 'Shepelev, Yu.F.'
_cell_length_a 7.734(5)
_cell_length_b 16.332(5)
_cell_length_c 14.556(5)
_cell_angle_alpha 90.
_cell_angle_beta 90.
_cell_angle_gamma 90.
_cell_volume 1838.59
_cell_formula_units_Z 4
_space_group_name_H-M_alt 'C m c 21'
_space_group_IT_number 36
loop_
_space_group_symop_id
_space_group_symop_operation_xyz
1 'x, -y, z+1/2'
2 '-x, -y, z+1/2'
3 '-x, y, z'
4 'x, y, z'
5 'x+1/2, -y+1/2, z+1/2'
6 '-x+1/2, -y+1/2, z+1/2'
7 '-x+1/2, y+1/2, z'
8 'x+1/2, y+1/2, z'
loop_
_atom_type_symbol
_atom_type_oxidation_number
Sr2+ 2
O2- -2
B3+ 3
loop_
_atom_site_label
_atom_site_type_symbol
_atom_site_symmetry_multiplicity
_atom_site_Wyckoff_symbol
_atom_site_fract_x
_atom_site_fract_y
_atom_site_fract_z
_atom_site_U_iso_or_equiv
_atom_site_occupancy
Sr1 Sr2+ 4 a 0 0.8235(2) 0.6619(6) 0.011(1) 1
Sr2 Sr2+ 4 a 0.5 0.6931(3) 0.5749(6) 0.011(1) 1
Sr3 Sr2+ 4 a 0.5 0.9301(3) 0.7538(6) 0.012(1) 1
Sr4 Sr2+ 4 a 0.5 0.5547(3) 0.8438(6) 0.015(1) 1
O1 O2- 8 b 0.699(2) 0.3105(11) 0.3719(14) 0.004(3) 1
O2 O2- 8 b 0.807(4) 0.2018(18) 0.4474(14) 0.023(6) 1
O3 O2- 8 b 0.706(3) 0.3276(15) 0.5207(19) 0.019(6) 1
O4 O2- 4 a 0 0.4080(17) 0.1970(20) 0.010(6) 1
O5 O2- 8 b 0.707(3) 0.4417(13) 0.2188(13) 0.011(5) 1
O6 O2- 8 b 0.797(4) 0.3008(17) 0.2160(20) 0.027(7) 1
O7 O2- 8 b 0.757(3) 0.0675(12) 0.3892(15) 0.011(5) 1
O8 O2- 8 b 0.824(4) 0.0664(16) 0.5556(13) 0.024(6) 1
O9 O2- 8 b 0.688(3) -0.0449(13) 0.4675(16) 0.008(4) 1
O10 O2- 8 b 0.719(2) 0.1832(10) 0.2910(11) 0.006(5) 1
O11 O2- 4 a 0 0.1432(18) 0.3360(2) 0.013(6) 1
O12 O2- 4 a 0.5 0.5236(17) 0.1400(20) 0.019(8) 1
O13 O2- 8 b 0.791(2) 0.5624(15) 0.1222(19) 0.017(6) 1
O14 O2- 4 a 0.5 -0.1415(16) 0.5510(20) 0.003(5) 1
O15 O2- 4 a 0.5 0.2690(20) 0.2360(30) 0.027(9) 1
B1 B3+ 8 b 0.739(4) 0.2750(20) 0.450(3) 0.013(3) 1
B2 B3+ 8 b 0.834(4) 0.3821(19) 0.217(4) 0.013(3) 1
B3 B3+ 8 b 0.741(4) 0.0341(19) 0.477(2) 0.013(3) 1
B4 B3+ 8 b 0.827(3) 0.1493(17) 0.366(2) 0.014(3) 1
B5 B3+ 8 b 0.678(4) 0.4898(18) 0.133(2) 0.014(3) 1
B6 B3+ 8 b 0.669(3) -0.1052(15) 0.539(2) 0.014(3) 1
B7 B3+ 8 b 0.669(3) 0.2681(15) 0.284(2) 0.014(3) 1
#End of TTdata_250446-ICSD