
#(C) 2020 by FIZ Karlsruhe - Leibniz Institute for Information Infrastructure.  All rights reserved.
data_250553-ICSD
_database_code_ICSD 250553
_audit_creation_date 2014-08-01
_chemical_name_common 'Tetrastrontium dihydroxo decaborate dihydrate'
_chemical_formula_structural 'Sr4 B10 O18 (O H)2 (H2 O)2'
_chemical_formula_sum 'H6 B10 O22 Sr4'
_exptl_crystal_density_diffrn 3.24
_diffrn_ambient_temperature 296.
_citation_title

;
Sr4 B10 O18 (O H)2 脗拢 2 H2 O: a new UV nonlinear optical material with a [B10
O23]16- building block
;
loop_
_citation_id
_citation_journal_full
_citation_year
_citation_journal_volume
_citation_page_first
_citation_page_last
_citation_journal_id_ASTM
primary

;
Journal of Materials Chemistry C: Materials for Optical and Electronic Devices
; 2014 2 667 674 JMCCCX
loop_
_citation_author_citation_id
_citation_author_name
primary 'Zhang, Fangyuan'
primary 'Jing, Qun'
primary 'Zhang, Fangfang'
primary 'Pan, Shilie'
primary 'Yang, Zhihua'
primary 'Han, Jian'
primary 'Zhang, Min'
primary 'Han, Shujuan'
_cell_length_a 6.4991(6)
_cell_length_b 6.5059(6)
_cell_length_c 11.3175(11)
_cell_angle_alpha 88.458(6)
_cell_angle_beta 86.019(5)
_cell_angle_gamma 61.351(5)
_cell_volume 418.92
_cell_formula_units_Z 1
_space_group_name_H-M_alt 'P 1'
_space_group_IT_number 1
loop_
_space_group_symop_id
_space_group_symop_operation_xyz
1 'x, y, z'
loop_
_atom_type_symbol
_atom_type_oxidation_number
Sr2+ 2
B3+ 3
O2- -2
H1+ 1
loop_
_atom_site_label
_atom_site_type_symbol
_atom_site_symmetry_multiplicity
_atom_site_Wyckoff_symbol
_atom_site_fract_x
_atom_site_fract_y
_atom_site_fract_z
_atom_site_U_iso_or_equiv
_atom_site_occupancy
Sr1 Sr2+ 1 a 0.47985(8) 0.23922(8) 0.22349(5) 0.01283(13) 1
Sr2 Sr2+ 1 a 0.47062(8) 0.43005(8) 0.74251(5) 0.01272(13) 1
Sr3 Sr2+ 1 a 0.88262(8) 0.38101(8) 0.43665(5) 0.01128(12) 1
Sr4 Sr2+ 1 a 0.89332(8) -0.12186(8) -0.05823(5) 0.01224(12) 1
B1 B3+ 1 a 0.3461(11) -0.0494(11) 0.7418(6) 0.0105(13) 1
B2 B3+ 1 a 1.0047(10) -0.6572(10) -0.2360(5) 0.0072(12) 1
B3 B3+ 1 a -0.0344(10) 1.0302(10) 0.6578(6) 0.0099(13) 1
B4 B3+ 1 a 0.8938(10) -0.6534(11) -0.0117(6) 0.0101(13) 1
B5 B3+ 1 a 0.3789(11) 0.7592(11) 0.2226(6) 0.0113(13) 1
B6 B3+ 1 a 0.8802(11) -0.1603(11) 0.4967(6) 0.0116(13) 1
B7 B3+ 1 a 0.8296(10) -0.4128(10) 0.1651(6) 0.0090(12) 1
B8 B3+ 1 a 0.7850(10) -0.2292(10) -0.2955(5) 0.0073(12) 1
B9 B3+ 1 a 0.0490(11) 1.1521(11) 0.1818(6) 0.0086(13) 1
B10 B3+ 1 a 0.9700(10) 0.8354(11) 0.2705(6) 0.0082(13) 1
O1 O2- 1 a 0.0258(6) 0.3792(6) 0.2105(3) 0.0075(8) 1
O2 O2- 1 a 0.3286(7) 0.2110(7) 0.4331(4) 0.0210(10) 1
O3 O2- 1 a 0.9122(6) 0.2773(6) 0.6639(3) 0.0064(8) 1
O4 O2- 1 a 0.9830(6) -0.4259(6) -0.2427(4) 0.0090(9) 1
O5 O2- 1 a 0.8185(7) -0.4394(6) 0.0333(3) 0.0120(8) 1
O6 O2- 1 a 0.7893(6) -0.0081(7) -0.2747(3) 0.0089(8) 1
O7 O2- 1 a 0.9757(6) 0.1531(6) 0.0610(3) 0.0113(8) 1
O8 O2- 1 a 0.8785(6) 0.7808(6) 0.3817(3) 0.0099(8) 1
O9 O2- 1 a 0.2258(6) 0.6794(6) 0.2588(4) 0.0102(8) 1
O10 O2- 1 a 0.5717(6) 0.7812(6) 0.7609(3) 0.0094(8) 1
O11 O2- 1 a 0.7883(6) 0.7382(7) 0.5750(3) 0.0122(8) 1
O12 O2- 1 a 0.9159(6) 0.0842(6) 0.2693(4) 0.0085(8) 1
O13 O2- 1 a 0.4668(7) 0.4652(7) 0.5148(4) 0.0239(10) 1
O14 O2- 1 a 0.9698(6) -0.0214(6) 0.5294(3) 0.0109(8) 1
O15 O2- 1 a 0.2019(6) 0.8740(6) 0.7002(4) 0.0123(8) 1
O16 O2- 1 a 0.6143(6) 0.5951(7) 0.2255(4) 0.0123(9) 1
O17 O2- 1 a 0.8817(7) 0.3027(6) -0.1285(3) 0.0125(8) 1
O18 O2- 1 a 0.2611(6) 0.1819(6) 0.7687(4) 0.0134(9) 1
O19 O2- 1 a 0.8464(6) -0.1992(6) 0.1756(3) 0.0078(8) 1
O20 O2- 1 a 1.3256(7) -0.3727(7) -0.0482(4) 0.0206(10) 1
O21 O2- 1 a 0.3063(6) 0.9809(6) 0.1831(4) 0.0114(8) 1
O22 O2- 1 a 0.4924(7) 0.2095(7) -0.0013(4) 0.0202(9) 1
H1 H1+ 1 a 0.3976 0.3361 0.474 0.024 1
H2 H1+ 1 a 0.337 0.598 0.5183 0.024 1
H3 H1+ 1 a 0.2987 0.1348 0.4948 0.024 1
H4 H1+ 1 a 1.4098 -0.5827 -0.0245 0.024 1
H5 H1+ 1 a 1.321 -0.2815 0.0123 0.024 1
H6 H1+ 1 a 0.3585 0.1964 0.0149 0.024 1
loop_
_atom_site_aniso_label
_atom_site_aniso_type_symbol
_atom_site_aniso_U_11
_atom_site_aniso_U_22
_atom_site_aniso_U_33
_atom_site_aniso_U_12
_atom_site_aniso_U_13
_atom_site_aniso_U_23
Sr1 Sr2+ 0.0077(2) 0.0095(3) 0.0196(3) -0.0025(2) -0.0031(2) 0.0001(2)
Sr2 Sr2+ 0.0088(3) 0.0090(3) 0.0188(3) -0.0031(2) 0.0006(2) -0.0013(2)
Sr3 Sr2+ 0.0136(3) 0.0105(2) 0.0101(3) -0.0061(2) -0.0010(2) -0.00024(19)
Sr4 Sr2+ 0.0147(3) 0.0103(2) 0.0107(3) -0.0050(2) -0.0033(2) 0.0014(2)
B1 B3+ 0.011(3) 0.010(3) 0.011(3) -0.006(3) 0.003(3) -0.001(3)
B2 B3+ 0.004(3) 0.004(3) 0.011(3) 0.000(2) 0.001(2) -0.001(2)
B3 B3+ 0.007(3) 0.005(3) 0.015(3) 0.000(2) -0.007(2) -0.001(3)
B4 B3+ 0.007(3) 0.015(3) 0.007(3) -0.005(3) -0.003(2) 0.002(3)
B5 B3+ 0.011(3) 0.006(3) 0.010(3) 0.002(3) -0.001(2) -0.004(2)
B6 B3+ 0.013(3) 0.006(3) 0.014(3) -0.001(3) -0.007(3) 0.002(3)
B7 B3+ 0.008(3) 0.008(3) 0.010(3) -0.003(3) -0.001(2) -0.002(2)
B8 B3+ 0.006(3) 0.003(3) 0.010(3) 0.001(2) -0.005(2) 0.000(2)
B9 B3+ 0.008(3) 0.012(3) 0.007(3) -0.005(3) -0.004(2) 0.005(3)
B10 B3+ 0.008(3) 0.008(3) 0.007(3) -0.003(3) -0.003(2) 0.001(2)
O1 O2- 0.008(2) 0.007(2) 0.006(2) -0.0014(17) -0.0037(16) -0.0003(15)
O2 O2- 0.016(2) 0.030(3) 0.018(3) -0.012(2) -0.0079(19) 0.003(2)
O3 O2- 0.0068(19) 0.004(2) 0.009(2) -0.0028(16) -0.0030(16) 0.0010(16)
O4 O2- 0.006(2) 0.006(2) 0.012(2) -0.0010(17) -0.0025(16) -0.0012(16)
O5 O2- 0.018(2) 0.010(2) 0.008(2) -0.0066(17) -0.0050(16) 0.0011(16)
O6 O2- 0.0077(19) 0.0083(19) 0.009(2) -0.0025(17) -0.0040(16) 0.0033(16)
O7 O2- 0.019(2) 0.0088(19) 0.005(2) -0.0058(17) -0.0063(16) 0.0026(15)
O8 O2- 0.015(2) 0.009(2) 0.007(2) -0.0063(17) -0.0017(16) -0.0012(16)
O9 O2- 0.0065(19) 0.0070(19) 0.017(2) -0.0028(16) -0.0019(16) 0.0031(16)
O10 O2- 0.0071(18) 0.0067(19) 0.014(2) -0.0031(16) -0.0029(16) 0.0037(16)
O11 O2- 0.016(2) 0.015(2) 0.007(2) -0.0084(17) -0.0009(16) -0.0001(16)
O12 O2- 0.0082(18) 0.0047(19) 0.013(2) -0.0032(16) -0.0004(17) -0.0006(16)
O13 O2- 0.013(2) 0.026(2) 0.027(3) -0.005(2) -0.0032(19) 0.001(2)
O14 O2- 0.016(2) 0.011(2) 0.008(2) -0.0078(17) 0.0004(16) -0.0005(16)
O15 O2- 0.0065(19) 0.0083(19) 0.021(2) -0.0021(16) -0.0082(16) 0.0032(16)
O16 O2- 0.0050(19) 0.009(2) 0.022(2) -0.0024(17) -0.0019(16) 0.0030(17)
O17 O2- 0.017(2) 0.012(2) 0.009(2) -0.0070(18) -0.0026(16) -0.0002(17)
O18 O2- 0.0083(19) 0.010(2) 0.022(2) -0.0045(17) -0.0042(17) 0.0016(17)
O19 O2- 0.0094(19) 0.0056(19) 0.009(2) -0.0034(16) -0.0057(16) 0.0024(16)
O20 O2- 0.016(2) 0.020(2) 0.021(3) -0.0042(19) -0.0046(18) -0.0021(19)
O21 O2- 0.0050(18) 0.0071(19) 0.019(2) -0.0009(16) -0.0014(16) 0.0022(16)
O22 O2- 0.014(2) 0.017(2) 0.026(3) -0.0042(19) -0.0024(18) 0.0039(19)
#End of TTdata_250553-ICSD