
#(C) 2020 by FIZ Karlsruhe - Leibniz Institute for Information Infrastructure.  All rights reserved.
data_250566-ICSD
_database_code_ICSD 250566
_audit_creation_date 2014-08-01
_chemical_name_common 'Trilead hexaborate difluoride'
_chemical_formula_structural 'Pb3 B6 O11 F2'
_chemical_formula_sum 'B6 F2 O11 Pb3'
_chemical_name_structure_type Ba3B6O11F2
_exptl_crystal_density_diffrn 6.
_diffrn_ambient_temperature 293.
_citation_title

;
Pb3 B6 O11 F2: the first non-centrosymmetric lead borate fluoride with a large
second harmonic generation response
;
loop_
_citation_id
_citation_journal_full
_citation_year
_citation_journal_volume
_citation_page_first
_citation_page_last
_citation_journal_id_ASTM
primary

;
Journal of Materials Chemistry C: Materials for Optical and Electronic Devices
; 2014 2 1704 1710 JMCCCX
loop_
_citation_author_citation_id
_citation_author_name
primary 'Li, Hongyi'
primary 'Wu, Hongping'
primary 'Su, Xin'
primary 'Yu, Hongwei'
primary 'Pan, Shilie'
primary 'Yang, Zhihua'
primary 'Lu, Yi'
primary 'Han, Jian'
primary 'Poeppelmeier, Kenneth R.'
_cell_length_a 6.4274(13)
_cell_length_b 8.3282(17)
_cell_length_c 9.4891(19)
_cell_angle_alpha 90.
_cell_angle_beta 101.19(3)
_cell_angle_gamma 90.
_cell_volume 498.28
_cell_formula_units_Z 2
_space_group_name_H-M_alt 'P 1 21 1'
_space_group_IT_number 4
loop_
_space_group_symop_id
_space_group_symop_operation_xyz
1 '-x, y+1/2, -z'
2 'x, y, z'
loop_
_atom_type_symbol
_atom_type_oxidation_number
Pb2+ 2
F1- -1
O2- -2
B3+ 3
loop_
_atom_site_label
_atom_site_type_symbol
_atom_site_symmetry_multiplicity
_atom_site_Wyckoff_symbol
_atom_site_fract_x
_atom_site_fract_y
_atom_site_fract_z
_atom_site_U_iso_or_equiv
_atom_site_occupancy
Pb1 Pb2+ 2 a -0.02133(13) 0.3560(2) 0.27323(11) 0.0074(5) 1
Pb2 Pb2+ 2 a 0.46270(16) 0.68140(11) 0.45339(11) 0.0084(5) 1
Pb3 Pb2+ 2 a 0.54782(15) 0.70226(12) 0.02756(12) 0.0080(6) 1
F1 F1- 2 a -0.130(2) 0.558(2) 0.4266(17) 0.021(4) 1
F2 F1- 2 a 0.616(2) 0.429(2) 0.1211(18) 0.023(5) 1
O1 O2- 2 a -0.069(2) 0.312(3) 0.5393(19) 0.009(5) 1
O2 O2- 2 a 1.091(2) 0.546(2) 0.6593(18) 0.000(5) 1
O3 O2- 2 a 0.333(2) 0.393(2) 0.4046(18) 0.000(4) 1
O4 O2- 2 a 0.811(3) 0.579(2) -0.1244(18) 0.003(4) 1
O5 O2- 2 a 0.016(2) 0.645(3) 0.2386(17) 0.005(6) 1
O6 O2- 2 a 0.153(2) 0.623(2) 0.0260(19) 0.007(5) 1
O7 O2- 2 a 0.710(2) 0.508(2) 0.6272(16) 0.000(4) 1
O8 O2- 2 a 0.054(2) 0.361(3) -0.0607(18) 0.005(4) 1
O9 O2- 2 a 0.454(2) 0.540(2) 0.7715(15) 0.000(4) 1
O10 O2- 2 a 0.724(3) 0.798(3) 0.307(2) 0.010(5) 1
O11 O2- 2 a 0.693(3) 0.319(3) 0.8068(19) 0.009(5) 1
B1 B3+ 2 a 0.012(5) 0.524(4) -0.057(3) 0.002(7) 1
B2 B3+ 2 a 0.889(5) 0.473(4) 0.564(3) 0.002(7) 1
B3 B3+ 2 a 0.076(5) 0.213(4) 0.644(3) 0.001(8) 1
B4 B3+ 2 a 0.272(5) 0.463(4) 0.705(3) 0.000(8) 1
B5 B3+ 2 a 0.669(5) 0.483(4) 0.759(3) 0.000(8) 1
B6 B3+ 2 a 0.107(5) 0.745(5) 0.131(3) 0.000(7) 1
loop_
_atom_site_aniso_label
_atom_site_aniso_type_symbol
_atom_site_aniso_U_11
_atom_site_aniso_U_22
_atom_site_aniso_U_33
_atom_site_aniso_U_12
_atom_site_aniso_U_13
_atom_site_aniso_U_23
Pb1 Pb2+ 0.0069(7) 0.0081(10) 0.0066(8) -0.0003(6) -0.0003(5) -0.0022(7)
Pb2 Pb2+ 0.0055(8) 0.0086(11) 0.0106(9) -0.0020(5) 0.0002(6) 0.0033(6)
Pb3 Pb2+ 0.0048(8) 0.0112(12) 0.0078(8) 0.0010(5) 0.0008(5) -0.0011(6)
#End of TTdata_250566-ICSD