
#(C) 2020 by FIZ Karlsruhe - Leibniz Institute for Information Infrastructure.  All rights reserved.
data_250666-ICSD
_database_code_ICSD 250666
_audit_creation_date 2015-02-01
_chemical_name_common 'Dirubidium gallium pentaborate tetrahydrate'
_chemical_formula_structural 'Rb2 Ga (B5 O10) (H2 O)4'
_chemical_formula_sum 'H8 B5 Ga1 O14 Rb2'
_chemical_name_structure_type Rb2GaB5O10(H2O)4
_exptl_crystal_density_diffrn 2.52
_diffrn_ambient_temperature 293.
_citation_title
'Exploratory investigation of new SHG materials based on galloborates'
loop_
_citation_id
_citation_journal_full
_citation_year
_citation_journal_volume
_citation_page_first
_citation_page_last
_citation_journal_id_ASTM
primary 'Inorganic Chemistry' 2012 51 8810 8817 INOCAJ
loop_
_citation_author_citation_id
_citation_author_name
primary 'Hu, Ting'
primary 'Hu, Chun-Li'
primary 'Kong, Fang'
primary 'Mao, Jiang-Gao'
primary 'Mak, Thomas C. W.'
_cell_length_a 9.5418(6)
_cell_length_b 10.3770(5)
_cell_length_c 14.0340(9)
_cell_angle_alpha 90.
_cell_angle_beta 90.
_cell_angle_gamma 90.
_cell_volume 1389.58
_cell_formula_units_Z 4
_space_group_name_H-M_alt 'C 2 2 21'
_space_group_IT_number 20
loop_
_space_group_symop_id
_space_group_symop_operation_xyz
1 '-x, y, -z+1/2'
2 '-x, -y, z+1/2'
3 'x, -y, -z'
4 'x, y, z'
5 '-x+1/2, y+1/2, -z+1/2'
6 '-x+1/2, -y+1/2, z+1/2'
7 'x+1/2, -y+1/2, -z'
8 'x+1/2, y+1/2, z'
loop_
_atom_type_symbol
_atom_type_oxidation_number
Rb1+ 1
Ga3+ 3
B3+ 3
O2- -2
H1+ 1
O2- -2
H1+ 1
loop_
_atom_site_label
_atom_site_type_symbol
_atom_site_symmetry_multiplicity
_atom_site_Wyckoff_symbol
_atom_site_fract_x
_atom_site_fract_y
_atom_site_fract_z
_atom_site_U_iso_or_equiv
_atom_site_occupancy
Rb1 Rb1+ 8 c 0.65050(5) 0.75387(4) 0.85615(3) 0.0336(2) 1
Ga1 Ga3+ 4 a 0.63769(6) 1. 0.5 0.0132(2) 1
B1 B3+ 4 b 1. 0.7987(6) 0.75 0.0181(13) 1
B2 B3+ 8 c 0.9860(5) 0.7196(4) 0.5824(3) 0.0190(9) 1
B3 B3+ 8 c 0.8334(5) 0.8922(4) 0.6304(3) 0.0160(9) 1
O1 O2- 8 c 0.8816(3) 0.8822(3) 0.7222(2) 0.0193(7) 1
O2 O2- 8 c 1.0433(3) 0.7163(3) 0.67081(19) 0.0192(6) 1
O3 O2- 8 c 0.8812(3) 0.8087(3) 0.5616(2) 0.0259(8) 1
O4 O2- 8 c 0.7381(3) 0.9838(3) 0.60967(17) 0.0180(6) 1
O5 O2- 8 c 1.0216(4) 0.6383(3) 0.5117(2) 0.0326(8) 1
O6 O2- 4 b 0.5 0.9519(5) 0.75 0.0421(13) 1
H1 H1+ 8 c 0.437(6) 1.004(6) 0.786(5) 0.08(2) 1
O7 O2- 4 a 0.2689(9) 0.5 1. 0.089(3) 1
O8 O2- 8 c 0.3617(10) 0.6094(5) 0.8275(3) 0.094(3) 1
H2 H1+ 8 c 0.331(11) 0.533(6) 0.794(5) 0.14(4) 1
H3 H1+ 8 c 0.356(9) 0.593(7) 0.897(2) 0.09(3) 1
H4 H1+ 8 c 0.179(10) 0.48(2) 0.971(8) 0.32(10) 1
loop_
_atom_site_aniso_label
_atom_site_aniso_type_symbol
_atom_site_aniso_U_11
_atom_site_aniso_U_22
_atom_site_aniso_U_33
_atom_site_aniso_U_12
_atom_site_aniso_U_13
_atom_site_aniso_U_23
Rb1 Rb1+ 0.0314(3) 0.0378(3) 0.0314(3) 0.0098(2) 0.00425(19) 0.00674(19)
Ga1 Ga3+ 0.0122(3) 0.0136(3) 0.0136(3) 0. 0. -0.0030(2)
B1 B3+ 0.022(3) 0.015(3) 0.018(3) 0. -0.009(3) 0.
B2 B3+ 0.023(2) 0.018(2) 0.016(2) 0.0068(18) -0.0033(18) -0.0017(17)
B3 B3+ 0.013(2) 0.020(2) 0.0143(19) 0.0029(18) -0.0017(16) 0.0002(16)
O1 O2- 0.0211(16) 0.0214(15) 0.0154(14) 0.0079(12) -0.0052(11) -0.0036(11)
O2 O2- 0.0190(14) 0.0189(14) 0.0196(14) 0.0078(12) -0.0036(11) -0.0028(11)
O3 O2- 0.0307(18) 0.0299(17) 0.0170(14) 0.0183(13) -0.0069(12) -0.0060(12)
O4 O2- 0.0193(13) 0.0167(15) 0.0180(13) 0.0077(12) -0.0048(11) -0.0028(11)
O5 O2- 0.0398(18) 0.0394(18) 0.0186(15) 0.0268(16) -0.0100(14) -0.0106(13)
O6 O2- 0.054(4) 0.030(3) 0.043(3) 0. 0.008(3) 0.
O7 O2- 0.058(5) 0.136(8) 0.074(5) 0. 0. 0.046(6)
O8 O2- 0.192(8) 0.047(3) 0.044(3) 0.018(4) 0.033(4) -0.002(2)
#End of TTdata_250666-ICSD