
#(C) 2020 by FIZ Karlsruhe - Leibniz Institute for Information Infrastructure.  All rights reserved.
data_251537-ICSD
_database_code_ICSD 251537
_audit_creation_date 2015-08-01
_chemical_name_common 'Trisodium decaoxo-chloro-hexaborate'
_chemical_formula_structural 'Na3 B6 O10 Cl'
_chemical_formula_sum 'B6 Cl1 Na3 O10'
_chemical_name_structure_type Te2Se4(SbF6)2
_exptl_crystal_density_diffrn 2.31
_diffrn_ambient_temperature 296.
_citation_title

;
Effect of halogen (Cl, Br) on the symmetry of flexible perovskite-related
framework
;
loop_
_citation_id
_citation_journal_full
_citation_year
_citation_journal_volume
_citation_page_first
_citation_page_last
_citation_journal_id_ASTM
primary 'Inorganic Chemistry' 2014 53 11213 11220 INOCAJ
loop_
_citation_author_citation_id
_citation_author_name
primary 'Bai, Chunyan'
primary 'Yu, Hongwei'
primary 'Han, Shujuan'
primary 'Pan, Shilie'
primary 'Zhang, Bingbing'
primary 'Wang, Ying'
primary 'Wu, Hongping'
primary 'Yang, Zhihua'
_cell_length_a 7.437(8)
_cell_length_b 9.938(11)
_cell_length_c 12.804(14)
_cell_angle_alpha 90.
_cell_angle_beta 90.
_cell_angle_gamma 90.
_cell_volume 946.32
_cell_formula_units_Z 4
_space_group_name_H-M_alt 'P 21 21 21'
_space_group_IT_number 19
loop_
_space_group_symop_id
_space_group_symop_operation_xyz
1 '-x, y+1/2, -z+1/2'
2 'x+1/2, -y+1/2, -z'
3 '-x+1/2, -y, z+1/2'
4 'x, y, z'
loop_
_atom_type_symbol
_atom_type_oxidation_number
Na1+ 1
B3+ 3
O2- -2
Cl1- -1
loop_
_atom_site_label
_atom_site_type_symbol
_atom_site_symmetry_multiplicity
_atom_site_Wyckoff_symbol
_atom_site_fract_x
_atom_site_fract_y
_atom_site_fract_z
_atom_site_U_iso_or_equiv
_atom_site_occupancy
Na1 Na1+ 4 a 0.44778(17) 0.20950(13) 0.24291(10) 0.0279(3) 1
Na2 Na1+ 4 a -0.02520(18) 0.25897(14) 0.25429(13) 0.0303(4) 1
Na3 Na1+ 4 a 0.1312(2) 0.00321(15) 0.44270(11) 0.0441(4) 1
B1 B3+ 4 a 0.2514(4) 0.4990(3) 0.2436(2) 0.0117(6) 1
B2 B3+ 4 a 0.0227(5) 0.7333(3) 0.5195(3) 0.0119(7) 1
B3 B3+ 4 a -0.2478(4) 0.1307(3) 0.5902(3) 0.0108(8) 1
B4 B3+ 4 a 0.1141(4) 0.5023(4) 0.5660(2) 0.0115(6) 1
B5 B3+ 4 a 0.0169(5) 0.2692(3) 0.5237(3) 0.0123(7) 1
B6 B3+ 4 a -0.2400(4) 0.8702(3) 0.5884(3) 0.0101(8) 1
O1 O2- 4 a 0.1856(2) 0.5001(2) 0.45531(13) 0.0092(3) 1
O2 O2- 4 a 0.1282(3) 0.26121(19) 0.43949(16) 0.0152(5) 1
O3 O2- 4 a 0.1360(3) 0.73854(19) 0.43476(16) 0.0137(5) 1
O4 O2- 4 a 0.2480(3) 0.37823(18) 0.29582(17) 0.0128(5) 1
O5 O2- 4 a 0.2721(3) 0.61753(19) 0.29739(17) 0.0129(5) 1
O6 O2- 4 a -0.0027(3) 0.38466(19) 0.58087(17) 0.0167(5) 1
O7 O2- 4 a 0.2354(2) 0.5017(2) 0.13837(15) 0.0185(4) 1
O8 O2- 4 a 0.0076(3) 0.6233(2) 0.58112(17) 0.0187(6) 1
O9 O2- 4 a -0.0693(3) 0.15404(19) 0.55043(16) 0.0164(5) 1
O10 O2- 4 a -0.0638(3) 0.85005(19) 0.54244(16) 0.0146(5) 1
Cl1 Cl1- 4 a 0.18095(11) 0.01626(8) 0.21998(7) 0.0304(2) 1
loop_
_atom_site_aniso_label
_atom_site_aniso_type_symbol
_atom_site_aniso_U_11
_atom_site_aniso_U_22
_atom_site_aniso_U_33
_atom_site_aniso_U_12
_atom_site_aniso_U_13
_atom_site_aniso_U_23
Na1 Na1+ 0.0256(7) 0.0346(8) 0.0234(7) 0.0123(6) 0.0035(6) 0.0024(6)
Na2 Na1+ 0.0273(8) 0.0246(7) 0.0390(8) -0.0042(6) -0.0080(7) -0.0067(6)
Na3 Na1+ 0.0766(11) 0.0173(6) 0.0384(8) -0.0049(9) 0.0201(7) -0.0004(7)
B1 B3+ 0.0099(12) 0.0120(14) 0.0133(14) -0.0013(13) 0.0021(10) -0.0007(14)
B2 B3+ 0.0136(18) 0.0076(15) 0.0145(17) 0.0004(13) -0.0017(14) -0.0010(12)
B3 B3+ 0.0140(19) 0.0070(15) 0.0113(19) -0.0009(13) -0.0049(13) 0.0000(13)
B4 B3+ 0.0135(13) 0.0109(13) 0.0101(13) 0.0010(15) 0.0013(10) -0.0020(15)
B5 B3+ 0.0147(19) 0.0099(15) 0.0122(16) -0.0030(13) -0.0028(14) 0.0008(12)
B6 B3+ 0.0114(18) 0.0079(15) 0.0111(19) 0.0013(12) 0.0008(13) 0.0005(13)
O1 O2- 0.0125(8) 0.0045(8) 0.0104(8) -0.0001(10) 0.0013(7) -0.0010(8)
O2 O2- 0.0202(12) 0.0077(9) 0.0177(12) -0.0037(9) 0.0064(10) -0.0026(8)
O3 O2- 0.0165(12) 0.0074(9) 0.0171(12) 0.0026(9) 0.0053(10) 0.0019(8)
O4 O2- 0.0188(12) 0.0076(9) 0.0121(12) 0.0014(8) 0.0004(8) 0.0005(8)
O5 O2- 0.0183(11) 0.0098(10) 0.0105(12) -0.0011(8) 0.0012(9) 0.0004(8)
O6 O2- 0.0235(13) 0.0112(10) 0.0154(11) -0.0053(9) 0.0074(10) -0.0024(8)
O7 O2- 0.0232(10) 0.0206(11) 0.0117(10) 0.0013(11) -0.0005(7) 0.0003(10)
O8 O2- 0.0275(14) 0.0108(10) 0.0178(12) 0.0069(9) 0.0108(10) 0.0038(9)
O9 O2- 0.0167(12) 0.0099(10) 0.0225(12) -0.0030(9) 0.0050(11) 0.0001(9)
O10 O2- 0.0129(11) 0.0103(10) 0.0204(12) 0.0032(9) 0.0047(10) 0.0002(9)
Cl1 Cl1- 0.0290(4) 0.0256(4) 0.0367(5) -0.0038(4) -0.0042(4) -0.0010(4)
#End of TTdata_251537-ICSD