
#(C) 2020 by FIZ Karlsruhe - Leibniz Institute for Information Infrastructure.  All rights reserved.
data_252381-ICSD
_database_code_ICSD 252381
_audit_creation_date 2016-08-01
_chemical_name_common 'Calcium pentaoxo-hydroxo-triborate'
_chemical_formula_structural 'Ca B3 O5 (O H)'
_chemical_formula_sum 'H1 B3 Ca1 O6'
_exptl_crystal_density_diffrn 2.73
_citation_title

;
Synthesis, crystal structure refinement, and nonlinear-optical properties of
CaB3O5(OH): Comparative crystal chemistry of calcium triborates
;
loop_
_citation_id
_citation_journal_full
_citation_year
_citation_journal_volume
_citation_page_first
_citation_page_last
_citation_journal_id_ASTM
primary 'Crystallography Reports' 2015 60 649 655 CYSTE3
loop_
_citation_author_citation_id
_citation_author_name
primary 'Yamnova, N.A.'
primary 'Aksenov, S.M.'
primary 'Stefanovich, S.Yu.'
primary 'Volkov, A.S.'
primary 'Dimitrova, O.V.'
_cell_length_a 13.490(1)
_cell_length_b 6.9576(3)
_cell_length_c 4.3930(2)
_cell_angle_alpha 90.
_cell_angle_beta 90.
_cell_angle_gamma 90.
_cell_volume 412.32
_cell_formula_units_Z 4
_space_group_name_H-M_alt 'P n a 21'
_space_group_IT_number 33
loop_
_space_group_symop_id
_space_group_symop_operation_xyz
1 'x+1/2, -y+1/2, z'
2 '-x+1/2, y+1/2, z+1/2'
3 '-x, -y, z+1/2'
4 'x, y, z'
loop_
_atom_type_symbol
_atom_type_oxidation_number
Ca2+ 2
O2- -2
B3+ 3
H1+ 1
loop_
_atom_site_label
_atom_site_type_symbol
_atom_site_symmetry_multiplicity
_atom_site_Wyckoff_symbol
_atom_site_fract_x
_atom_site_fract_y
_atom_site_fract_z
_atom_site_U_iso_or_equiv
_atom_site_occupancy
Ca1 Ca2+ 4 a 0.4050(1) 0.7955(1) 0.1062(2) 0.0104(2) 1.
O1 O2- 4 a 0.4031(2) 0.1193(4) 0.2545(6) 0.0153(6) 1.
O2 O2- 4 a 0.5702(2) 0.7576(4) 0.2453(6) 0.0098(5) 1.
O3 O2- 4 a 0.3575(2) 0.4504(3) 0.1264(7) 0.0098(5) 1.
O4 O2- 4 a 0.3222(2) 0.9707(4) -0.3199(7) 0.0108(6) 1.
O5 O2- 4 a 0.4680(2) 0.6552(4) -0.3553(6) 0.0100(6) 1.
O6 O2- 4 a 0.2326(2) 0.7780(4) 0.0037(7) 0.0116(6) 1.
B1 B3+ 4 a 0.5718(3) 0.7146(6) 0.5671(1) 0.0082(7) 1.
B2 B3+ 4 a 0.2308(3) 0.9044(6) -0.2357(1) 0.0094(8) 1.
B3 B3+ 4 a 0.6440(3) 0.8452(6) 0.0476(1) 0.0080(8) 1.
H1 H1+ 4 a 0.4527(4) 0.5305(2) -0.3757(1) 0.0367(2) 1.
#End of TTdata_252381-ICSD