
#(C) 2020 by FIZ Karlsruhe - Leibniz Institute for Information Infrastructure.  All rights reserved.
data_252464-ICSD
_database_code_ICSD 252464
_audit_creation_date 2016-08-01
_chemical_name_common
'Tricalcium zinc germanium dioxide dodecaoxotetragermanate'
_chemical_formula_structural 'Ca3 Zn Ge O2 (Ge4 O12)'
_chemical_formula_sum 'Ca3 Ge5 O14 Zn1'
_chemical_name_structure_type Taikanite#BaSr2Mn2O2(SiO3)4
_exptl_crystal_density_diffrn 4.58
_citation_title
'Ca3 Zn Ge O2 [Ge4 O12]: a Ca-Zn germanate related to the mineral taikanite'
loop_
_citation_id
_citation_journal_full
_citation_year
_citation_journal_volume
_citation_page_first
_citation_page_last
_citation_journal_id_ASTM
primary 'Acta Crystallographica, Section C: Structural Chemistry' 2015 71 80 83
ACSCGG
loop_
_citation_author_citation_id
_citation_author_name
primary 'Redhammer, Guenther J.'
_cell_length_a 13.938(5)
_cell_length_b 7.941(3)
_cell_length_c 5.060(17)
_cell_angle_alpha 90
_cell_angle_beta 90.817(4)
_cell_angle_gamma 90
_cell_volume 559.99
_cell_formula_units_Z 2
_space_group_name_H-M_alt 'C 1 2 1'
_space_group_IT_number 5
loop_
_space_group_symop_id
_space_group_symop_operation_xyz
1 '-x, y, -z'
2 'x, y, z'
3 '-x+1/2, y+1/2, -z'
4 'x+1/2, y+1/2, z'
loop_
_atom_type_symbol
_atom_type_oxidation_number
Ca2+ 2
Ge4+ 4
Zn2+ 2
O2- -2
loop_
_atom_site_label
_atom_site_type_symbol
_atom_site_symmetry_multiplicity
_atom_site_Wyckoff_symbol
_atom_site_fract_x
_atom_site_fract_y
_atom_site_fract_z
_atom_site_U_iso_or_equiv
_atom_site_occupancy
Ca1 Ca2+ 2 a 0.5 0.7639(3) 0 0.0166(5) 1.
Ca2 Ca2+ 4 c 0.29262(13) 0.3939(2) -0.0011(3) 0.0160(3) 1.
Ge1 Ge4+ 4 c 0.12017(6) 0.56994(12) 0.49129(17) 0.0158(2) 1.
Ge2 Ge4+ 4 c 0.33374(6) 0.68607(12) 0.47432(15) 0.01256(19) 1.
Ge3 Ge4+ 2 b 0.5 0.41679(16) 0.5 0.0169(3) 1.
Zn1 Zn2+ 2 a 0.5 0.1812(2) 0 0.0182(3) 1.
O1 O2- 4 c 0.1114(6) 0.7217(10) 0.7317(18) 0.039(2) 1.
O2 O2- 4 c 0.1600(5) 0.3856(8) 0.6801(12) 0.0194(13) 1.
O3 O2- 4 c 0.4272(4) 0.5753(9) 0.3185(12) 0.0193(12) 1.
O4 O2- 4 c 0.4296(5) 0.3399(11) 0.7568(16) 0.034(2) 1.
O5 O2- 4 c 0.3325(4) 0.6851(10) 0.8130(10) 0.0174(11) 1.
O6 O2- 4 c 0.0415(5) 0.4994(8) 0.2476(15) 0.0260(15) 1.
O7 O2- 4 c 0.2317(4) 0.6012(8) 0.3112(12) 0.0183(13) 1.
loop_
_atom_site_aniso_label
_atom_site_aniso_type_symbol
_atom_site_aniso_U_11
_atom_site_aniso_U_22
_atom_site_aniso_U_33
_atom_site_aniso_U_12
_atom_site_aniso_U_13
_atom_site_aniso_U_23
Ca1 Ca2+ 0.0182(11) 0.0173(11) 0.0140(10) 0. -0.0038(8) 0.
Ca2 Ca2+ 0.0157(7) 0.0187(8) 0.0134(7) 0.0013(6) -0.0023(6) 0.0008(6)
Ge1 Ge4+ 0.0145(4) 0.0178(4) 0.0150(4) 0.0003(3) -0.0050(3) -0.0041(3)
Ge2 Ge4+ 0.0112(3) 0.0144(4) 0.0119(3) -0.0004(3) -0.0027(3) -0.0003(3)
Ge3 Ge4+ 0.0189(6) 0.0166(6) 0.0155(6) 0. 0.0032(4) 0.
Zn1 Zn2+ 0.0194(6) 0.0214(6) 0.0136(6) 0. -0.0030(5) 0.
O1 O2- 0.020(3) 0.034(5) 0.063(5) -0.005(3) 0.004(4) -0.034(4)
O2 O2- 0.023(3) 0.020(3) 0.015(3) 0.003(2) -0.005(2) -0.006(3)
O3 O2- 0.018(3) 0.020(3) 0.020(3) 0.010(3) 0.004(2) 0.004(3)
O4 O2- 0.022(3) 0.035(4) 0.044(5) 0.008(3) 0.020(3) 0.022(4)
O5 O2- 0.020(3) 0.019(3) 0.013(2) -0.001(3) 0.001(2) 0.003(3)
O6 O2- 0.026(4) 0.018(3) 0.034(4) -0.001(3) -0.017(3) -0.003(2)
O7 O2- 0.014(3) 0.023(3) 0.018(3) -0.004(2) -0.001(2) -0.006(2)
#End of TTdata_252464-ICSD