
#(C) 2020 by FIZ Karlsruhe - Leibniz Institute for Information Infrastructure.  All rights reserved.
data_253012-ICSD
_database_code_ICSD 253012
_audit_creation_date 2017-08-01
_chemical_name_common 'Tripotassium tetrahydroxo-tetraoxo-triborate dihydrate'
_chemical_formula_structural 'K3 B3 O4 (O H)4 (H2 O)2'
_chemical_formula_sum 'H8 B3 K3 O10'
_exptl_crystal_density_diffrn 2.13
_diffrn_ambient_temperature 296.
_citation_title

;
K3 B3 O4 (OH)4 * 2H2O: a UV nonlinear optical crystal with isolated
[B3O4(OH)4]3- anion groups
;
loop_
_citation_id
_citation_journal_full
_citation_year
_citation_journal_volume
_citation_page_first
_citation_page_last
_citation_journal_id_ASTM
primary 'Inorganic Chemistry' 2016 55 8744 8749 INOCAJ
loop_
_citation_author_citation_id
_citation_author_name
primary 'Liu, Qiong'
primary 'Zhang, Xiangyu'
primary 'Yang, Zhihua'
primary 'Zhang, Fangfang'
primary 'Liu, Lili'
primary 'Han, Jian'
primary 'Li, Zhi'
primary 'Pan, Shilie'
_cell_length_a 13.806(4)
_cell_length_b 7.910(2)
_cell_length_c 9.093(3)
_cell_angle_alpha 90.
_cell_angle_beta 90.
_cell_angle_gamma 90.
_cell_volume 993.
_cell_formula_units_Z 4
_space_group_name_H-M_alt 'C m c 21'
_space_group_IT_number 36
loop_
_space_group_symop_id
_space_group_symop_operation_xyz
1 'x, -y, z+1/2'
2 '-x, -y, z+1/2'
3 '-x, y, z'
4 'x, y, z'
5 'x+1/2, -y+1/2, z+1/2'
6 '-x+1/2, -y+1/2, z+1/2'
7 '-x+1/2, y+1/2, z'
8 'x+1/2, y+1/2, z'
loop_
_atom_type_symbol
_atom_type_oxidation_number
K1+ 1
B3+ 3
O2- -2
H1+ 1
loop_
_atom_site_label
_atom_site_type_symbol
_atom_site_symmetry_multiplicity
_atom_site_Wyckoff_symbol
_atom_site_fract_x
_atom_site_fract_y
_atom_site_fract_z
_atom_site_U_iso_or_equiv
_atom_site_occupancy
K1 K1+ 4 a 1. 1.0705(2) 0.6335(3) 0.0298(5) 1
K2 K1+ 8 b 0.71159(8) 0.95266(13) 0.6438(2) 0.0231(3) 1
B1 B3+ 8 b 0.5902(6) 0.7531(11) 0.9382(11) 0.0312(18) 1
B2 B3+ 4 a 0.5 1.0218(16) 0.8784(18) 0.031(3) 1
O1 O2- 8 b 0.6240(4) 0.7340(8) 1.0925(7) 0.0383(13) 1
O2 O2- 8 b 0.6612(5) 0.6711(8) 0.4393(8) 0.0450(16) 1
O3 O2- 8 b 0.6656(4) 0.6692(8) 0.8455(7) 0.0390(15) 1
O4 O2- 8 b 0.5860(4) 0.9376(6) 0.8992(8) 0.0382(14) 1
O5 O2- 4 a 0.5 1.1832(9) 0.8356(11) 0.039(2) 1
O6 O2- 4 a 0.5 0.6700(10) 0.9126(10) 0.0358(18) 1
H1 H1+ 8 b 0.5885 0.7562 1.162 0.043 1
H2 H1+ 8 b 0.615 0.7119 0.4086 0.043 1
H3 H1+ 8 b 0.6624 0.5731 0.4112 0.043 1
H4 H1+ 8 b 0.7117 0.7136 0.8713 0.043 1
loop_
_atom_site_aniso_label
_atom_site_aniso_type_symbol
_atom_site_aniso_U_11
_atom_site_aniso_U_22
_atom_site_aniso_U_33
_atom_site_aniso_U_12
_atom_site_aniso_U_13
_atom_site_aniso_U_23
K1 K1+ 0.0305(8) 0.0338(9) 0.0252(11) 0. 0. -0.0098(12)
K2 K1+ 0.0219(5) 0.0249(5) 0.0226(7) 0.0057(4) 0.0016(7) 0.0041(8)
B1 B3+ 0.029(3) 0.033(4) 0.032(5) 0.000(3) 0.001(4) 0.003(4)
B2 B3+ 0.033(5) 0.026(7) 0.035(7) 0. 0. 0.001(6)
O1 O2- 0.036(2) 0.047(3) 0.033(3) 0.007(2) -0.001(2) -0.005(2)
O2 O2- 0.050(3) 0.037(3) 0.048(4) 0.006(3) -0.010(3) -0.004(3)
O3 O2- 0.030(3) 0.043(3) 0.043(4) 0.002(2) 0.002(3) -0.003(3)
O4 O2- 0.031(2) 0.028(2) 0.056(4) -0.0005(19) 0.001(3) 0.004(2)
O5 O2- 0.035(4) 0.032(4) 0.050(6) 0. 0. 0.006(4)
O6 O2- 0.030(3) 0.037(4) 0.040(5) 0. 0. 0.003(3)
#End of TTdata_253012-ICSD