
#(C) 2020 by FIZ Karlsruhe - Leibniz Institute for Information Infrastructure.  All rights reserved.
data_253356-ICSD
_database_code_ICSD 253356
_audit_creation_date 2017-08-01
_chemical_name_common
'Trilithium dicesium dibarium tetracosaoxo-triborohexaphosphate'
_chemical_formula_structural 'Li3 Cs2 Ba2 B3 P6 O24'
_chemical_formula_sum 'B3 Ba2 Cs2 Li3 O24 P6'
_exptl_crystal_density_diffrn 3.64
_diffrn_ambient_temperature 293.
_citation_title

;
Syntheses of six and twelve membered borophosphate ring structure with
nonlinear optical activity
;
loop_
_citation_id
_citation_journal_full
_citation_year
_citation_journal_volume
_citation_page_first
_citation_page_last
_citation_journal_id_ASTM
primary 'Journal of Solid State Chemistry' 2016 243 259 266 JSSCBI
loop_
_citation_author_citation_id
_citation_author_name
primary 'Khan, Muhammad Ali'
primary 'Li, Yan-Yan'
primary 'Lin, Hua'
primary 'Zhang, Li-Jun'
primary 'Liu, Peng-Fei'
primary 'Zhao, Hua-Jun'
primary 'Duan, Rui-Huan'
primary 'Wang, Jin-Qiu'
primary 'Chen, Ling'
_cell_length_a 12.8530(5)
_cell_length_b 12.8530(5)
_cell_length_c 12.8530(5)
_cell_angle_alpha 90.
_cell_angle_beta 90.
_cell_angle_gamma 90.
_cell_volume 2123.31
_cell_formula_units_Z 4
_space_group_name_H-M_alt 'P 21 3'
_space_group_IT_number 198
loop_
_space_group_symop_id
_space_group_symop_operation_xyz
1 '-z+1/2, -x, y+1/2'
2 '-y+1/2, -z, x+1/2'
3 '-x+1/2, -y, z+1/2'
4 '-z, x+1/2, -y+1/2'
5 '-y, z+1/2, -x+1/2'
6 '-x, y+1/2, -z+1/2'
7 'z+1/2, -x+1/2, -y'
8 'y+1/2, -z+1/2, -x'
9 'x+1/2, -y+1/2, -z'
10 'z, x, y'
11 'y, z, x'
12 'x, y, z'
loop_
_atom_type_symbol
_atom_type_oxidation_number
Ba2+ 2
Cs1+ 1
Li1+ 1
B3+ 3
P5+ 5
O2- -2
loop_
_atom_site_label
_atom_site_type_symbol
_atom_site_symmetry_multiplicity
_atom_site_Wyckoff_symbol
_atom_site_fract_x
_atom_site_fract_y
_atom_site_fract_z
_atom_site_U_iso_or_equiv
_atom_site_occupancy
Ba1 Ba2+ 4 a 0.34292(4) 0.15708(4) 0.84292(4) 0.02179(19) 1
Ba2 Ba2+ 4 a 0.16811(3) 0.66811(3) 0.83189(3) 0.01305(16) 1
Cs1 Cs1+ 4 a 0.40221(4) 0.59779(4) 1.09779(4) 0.0267(2) 1
Cs2 Cs1+ 4 a 0.60564(4) 0.39436(4) 0.89436(4) 0.0257(2) 1
Li1 Li1+ 12 b 0.8129(8) 0.4431(9) 0.6502(9) 0.012(2) 1
B1 B3+ 12 b 1.1067(5) 0.3693(5) 0.8855(5) 0.0040(11) 1
P1 P5+ 12 b 0.89345(13) 0.40165(13) 0.86453(12) 0.0097(3) 1
P2 P5+ 12 b 0.07011(12) 0.16330(13) 0.80963(12) 0.0108(3) 1
O1 O2- 12 b 0.8351(4) 0.5079(3) 0.8756(4) 0.0132(9) 1
O2 O2- 12 b 0.1487(4) 0.0887(4) 0.8522(4) 0.0185(10) 1
O3 O2- 12 b 0.1143(4) 0.2768(4) 0.8182(4) 0.0152(9) 1
O4 O2- 12 b -0.0360(4) 0.1517(4) 0.8545(4) 0.0197(11) 1
O5 O2- 12 b 0.8695(4) 0.3583(4) 0.7594(4) 0.0228(11) 1
O6 O2- 12 b 0.8583(4) 0.3353(4) 0.9535(4) 0.0201(11) 1
O7 O2- 12 b 1.0111(4) 0.4279(4) 0.8709(4) 0.0183(11) 1
O8 O2- 12 b 1.1881(3) 0.4449(4) 0.8498(4) 0.0121(9) 1
loop_
_atom_site_aniso_label
_atom_site_aniso_type_symbol
_atom_site_aniso_U_11
_atom_site_aniso_U_22
_atom_site_aniso_U_33
_atom_site_aniso_U_12
_atom_site_aniso_U_13
_atom_site_aniso_U_23
Ba1 Ba2+ 0.02179(19) 0.02179(19) 0.02179(19) -0.00255(18) 0.00255(18)
-0.00255(18)
Ba2 Ba2+ 0.01305(16) 0.01305(16) 0.01305(16) 0.00191(15) -0.00191(15)
-0.00191(15)
Cs1 Cs1+ 0.0267(2) 0.0267(2) 0.0267(2) 0.00248(19) 0.00248(19) -0.00248(19)
Cs2 Cs1+ 0.0257(2) 0.0257(2) 0.0257(2) -0.0026(2) -0.0026(2) 0.0026(2)
Li1 Li1+ 0.003(4) 0.015(5) 0.018(5) 0.002(4) -0.001(4) 0.002(4)
P1 P5+ 0.0108(7) 0.0087(7) 0.0095(7) 0.0010(6) -0.0001(6) 0.0022(6)
P2 P5+ 0.0105(7) 0.0099(7) 0.0120(7) 0.0013(6) 0.0020(6) 0.0000(6)
O1 O2- 0.010(2) 0.009(2) 0.020(2) -0.0009(17) 0.0036(18) 0.0007(17)
O2 O2- 0.023(3) 0.017(2) 0.015(2) 0.008(2) -0.001(2) 0.003(2)
O3 O2- 0.021(2) 0.011(2) 0.013(2) -0.0061(19) 0.0052(19) -0.0065(17)
O4 O2- 0.016(2) 0.022(3) 0.021(2) -0.001(2) 0.009(2) -0.004(2)
O5 O2- 0.030(3) 0.022(3) 0.016(2) 0.004(2) -0.005(2) -0.002(2)
O6 O2- 0.033(3) 0.011(2) 0.016(2) 0.000(2) 0.007(2) 0.004(2)
O7 O2- 0.006(2) 0.014(2) 0.034(3) 0.0031(17) -0.004(2) -0.002(2)
O8 O2- 0.010(2) 0.010(2) 0.016(2) -0.0006(16) 0.0001(17) 0.0001(18)
#End of TTdata_253356-ICSD