
#(C) 2020 by FIZ Karlsruhe - Leibniz Institute for Information Infrastructure.  All rights reserved.
data_253442-ICSD
_database_code_ICSD 253442
_audit_creation_date 2017-08-01
_chemical_name_common 'Tribismuth tellurium nonaoxoborate - BTBO'
_chemical_formula_structural 'Bi3 Te B O9'
_chemical_formula_sum 'B1 Bi3 O9 Te1'
_exptl_crystal_density_diffrn 7.72
_diffrn_ambient_temperature 293.
_citation_title

;
''All-three-in-one'': A new bismuth-tellurium-borate Bi3TeBO9 exhibiting
strong second harmonic generation response
;
loop_
_citation_id
_citation_journal_full
_citation_year
_citation_journal_volume
_citation_page_first
_citation_page_last
_citation_journal_id_ASTM
primary 'Journal of the American Chemical Society' 2016 138 14190 14193 JACSAT
loop_
_citation_author_citation_id
_citation_author_name
primary 'Xia, Mingjun'
primary 'Jiang, Xingxing'
primary 'Lin, Zheshuai'
primary 'Li, Rukang'
_cell_length_a 8.7510(12)
_cell_length_b 8.7510(12)
_cell_length_c 5.8981(12)
_cell_angle_alpha 90.
_cell_angle_beta 90.
_cell_angle_gamma 120.
_cell_volume 391.16
_cell_formula_units_Z 2
_space_group_name_H-M_alt 'P 63'
_space_group_IT_number 173
loop_
_space_group_symop_id
_space_group_symop_operation_xyz
1 'x-y, x, z+1/2'
2 'y, -x+y, z+1/2'
3 '-x, -y, z+1/2'
4 '-x+y, -x, z'
5 '-y, x-y, z'
6 'x, y, z'
loop_
_atom_type_symbol
_atom_type_oxidation_number
Bi3+ 3
Te6+ 6
O2- -2
B3+ 3
loop_
_atom_site_label
_atom_site_type_symbol
_atom_site_symmetry_multiplicity
_atom_site_Wyckoff_symbol
_atom_site_fract_x
_atom_site_fract_y
_atom_site_fract_z
_atom_site_U_iso_or_equiv
_atom_site_occupancy
Bi1 Bi3+ 6 c 0.29827(3) 0.34622(3) 0.10689(12) 0.00170(9) 1
Te1 Te6+ 2 b 0.6667 0.3333 0.0813(2) 0.0007(2) 1
O1 O2- 6 c 0.4599(9) 0.2464(9) 0.2679(12) 0.0035(13) 1
O2 O2- 6 c 0.5407(8) 0.4147(8) -0.1042(13) 0.0034(14) 1
O3 O2- 6 c 0.1009(9) 0.1813(8) 0.4333(13) 0.0032(12) 1
B1 B3+ 2 a 0. 0. 0.425(3) 0.005(4) 1
loop_
_atom_site_aniso_label
_atom_site_aniso_type_symbol
_atom_site_aniso_U_11
_atom_site_aniso_U_22
_atom_site_aniso_U_33
_atom_site_aniso_U_12
_atom_site_aniso_U_13
_atom_site_aniso_U_23
Bi1 Bi3+ 0.00197(13) 0.00214(13) 0.00124(17) 0.00121(10) -0.0002(2) 0.0000(2)
Te1 Te6+ 0.0010(2) 0.0010(2) 0.0002(5) 0.00049(11) 0. 0.
O1 O2- 0.0038(15) 0.0033(16) 0.0037(16) 0.0020(10) 0.0008(9) -0.0006(9)
O2 O2- 0.002(3) 0.001(3) 0.006(4) 0.001(2) -0.002(2) -0.001(2)
O3 O2- 0.0035(15) 0.0032(15) 0.0027(16) 0.0015(10) 0.0005(9) -0.0010(9)
B1 B3+ 0.005(5) 0.005(5) 0.005(10) 0.003(2) 0. 0.
#End of TTdata_253442-ICSD