
#(C) 2020 by FIZ Karlsruhe - Leibniz Institute for Information Infrastructure.  All rights reserved.
data_253696-ICSD
_database_code_ICSD 253696
_audit_creation_date 2017-08-01
_chemical_name_common 'Cesium calcium borate'
_chemical_formula_structural 'Cs Ca B O3'
_chemical_formula_sum 'B1 Ca1 Cs1 O3'
_exptl_crystal_density_diffrn 3.55
_diffrn_ambient_temperature 296.
_citation_title
'ACaBO3 (A = Cs, Rb). Two new cubic borates with isolated BO3 groups'
loop_
_citation_id
_citation_journal_full
_citation_year
_citation_journal_volume
_citation_page_first
_citation_page_last
_citation_journal_id_ASTM
primary 'Dalton Transactions' 2017 46 4968 4974 DTARAF
loop_
_citation_author_citation_id
_citation_author_name
primary 'Wen, Ming'
primary 'Wu, Hongping'
primary 'Su, Xin'
primary 'Lu, Juanjuan'
primary 'Yang, Zhihua'
primary 'Wu, Xiaohong'
primary 'Pan, Shilie'
_cell_length_a 7.572(3)
_cell_length_b 7.572(3)
_cell_length_c 7.572(3)
_cell_angle_alpha 90.
_cell_angle_beta 90.
_cell_angle_gamma 90.
_cell_volume 434.14
_cell_formula_units_Z 4
_space_group_name_H-M_alt 'P 21 3'
_space_group_IT_number 198
loop_
_space_group_symop_id
_space_group_symop_operation_xyz
1 '-z+1/2, -x, y+1/2'
2 '-y+1/2, -z, x+1/2'
3 '-x+1/2, -y, z+1/2'
4 '-z, x+1/2, -y+1/2'
5 '-y, z+1/2, -x+1/2'
6 '-x, y+1/2, -z+1/2'
7 'z+1/2, -x+1/2, -y'
8 'y+1/2, -z+1/2, -x'
9 'x+1/2, -y+1/2, -z'
10 'z, x, y'
11 'y, z, x'
12 'x, y, z'
loop_
_atom_type_symbol
_atom_type_oxidation_number
Cs1+ 1
Ca2+ 2
B3+ 3
O2- -2
loop_
_atom_site_label
_atom_site_type_symbol
_atom_site_symmetry_multiplicity
_atom_site_Wyckoff_symbol
_atom_site_fract_x
_atom_site_fract_y
_atom_site_fract_z
_atom_site_U_iso_or_equiv
_atom_site_occupancy
Cs1 Cs1+ 4 a 0.63993(5) 0.36007(5) 0.86007(5) 0.02456(17) 1
Ca1 Ca2+ 4 a 0.85682(13) 0.85682(13) 0.85682(13) 0.0147(3) 1
B1 B3+ 4 a 1.0960(8) 0.5960(8) 0.9040(8) 0.017(2) 1
O1 O2- 12 b 1.0869(6) 0.7337(5) 1.0242(5) 0.0204(10) 1
loop_
_atom_site_aniso_label
_atom_site_aniso_type_symbol
_atom_site_aniso_U_11
_atom_site_aniso_U_22
_atom_site_aniso_U_33
_atom_site_aniso_U_12
_atom_site_aniso_U_13
_atom_site_aniso_U_23
Cs1 Cs1+ 0.02456(17) 0.02456(17) 0.02456(17) 0.00120(19) 0.00120(19)
-0.00120(19)
Ca1 Ca2+ 0.0147(3) 0.0147(3) 0.0147(3) -0.0004(6) -0.0004(6) -0.0004(6)
B1 B3+ 0.017(2) 0.017(2) 0.017(2) 0.001(2) -0.001(2) -0.001(2)
O1 O2- 0.024(2) 0.021(2) 0.016(2) 0.0017(17) -0.0042(17) -0.0038(17)
#End of TTdata_253696-ICSD