
#(C) 2020 by FIZ Karlsruhe - Leibniz Institute for Information Infrastructure.  All rights reserved.
data_254161-ICSD
_database_code_ICSD 254161
_audit_creation_date 2018-02-01
_chemical_name_common 'Ammonium tetraborate fluoride'
_chemical_formula_structural 'N H4 B4 O6 F'
_chemical_formula_sum 'H4 B4 F1 N1 O6'
_exptl_crystal_density_diffrn 2.11
_diffrn_ambient_temperature 140.
_citation_title
'Finding the next deep-ultraviolet nonlinear optical material: NH4B4O6F'
loop_
_citation_id
_citation_journal_full
_citation_year
_citation_journal_volume
_citation_page_first
_citation_page_last
_citation_journal_id_ASTM
primary 'Journal of the American Chemical Society' 2017 139 10645 10648 JACSAT
loop_
_citation_author_citation_id
_citation_author_name
primary 'Shi, Guoqiang'
primary 'Wang, Ying'
primary 'Zhang, Fangfang'
primary 'Zhang, Bingbing'
primary 'Yang, Zhihua'
primary 'Hou, Xueling'
primary 'Pan, Shilie'
primary 'Poeppelmeier, Kenneth R.'
_cell_length_a 7.5457(14)
_cell_length_b 11.177(2)
_cell_length_c 6.5805(13)
_cell_angle_alpha 90
_cell_angle_beta 90
_cell_angle_gamma 90
_cell_volume 554.98
_cell_formula_units_Z 4
_space_group_name_H-M_alt 'P n a 21'
_space_group_IT_number 33
loop_
_space_group_symop_id
_space_group_symop_operation_xyz
1 'x+1/2, -y+1/2, z'
2 '-x+1/2, y+1/2, z+1/2'
3 '-x, -y, z+1/2'
4 'x, y, z'
loop_
_atom_type_symbol
_atom_type_oxidation_number
B3+ 3
F1- -1
N3- -3
H1+ 1
O2- -2
loop_
_atom_site_label
_atom_site_type_symbol
_atom_site_symmetry_multiplicity
_atom_site_Wyckoff_symbol
_atom_site_fract_x
_atom_site_fract_y
_atom_site_fract_z
_atom_site_U_iso_or_equiv
_atom_site_occupancy
B1 B3+ 4 a 0.3033(4) 0.5042(3) 0.3245(5) 0.0117(6) 1
B2 B3+ 4 a 0.2036(4) 0.0830(2) 0.1753(5) 0.0130(6) 1
B3 B3+ 4 a 0.2468(4) 0.3050(3) 0.2149(5) 0.0138(7) 1
B4 B3+ 4 a 0.1997(4) 0.4703(2) -0.0260(5) 0.0121(6) 1
F1 F1- 4 a 0.02170(18) 0.50512(14) -0.0563(3) 0.0195(4) 1
N1 N3- 4 a 0.9819(3) 0.24925(19) 0.6884(4) 0.0169(5) 1
H1 H1+ 4 a 1.045(4) 0.267(2) 0.815(6) 0.02 1
H2 H1+ 4 a 1.059(4) 0.219(3) 0.587(6) 0.02 1
H3 H1+ 4 a 0.917(4) 0.190(3) 0.709(5) 0.02 1
H4 H1+ 4 a 0.915(4) 0.312(3) 0.640(6) 0.02 1
O1 O2- 4 a 0.3083(2) 0.38259(15) 0.3628(3) 0.0139(4) 1
O2 O2- 4 a 0.2004(2) 0.34253(16) 0.0296(3) 0.0149(4) 1
O3 O2- 4 a 0.2060(2) -0.01999(16) 0.2825(3) 0.0138(4) 1
O4 O2- 4 a 0.2729(2) 0.54549(16) 0.1346(3) 0.0126(4) 1
O5 O2- 4 a 0.1648(2) 0.08714(14) -0.0267(3) 0.0135(4) 1
O6 O2- 4 a 0.2358(2) 0.18857(17) 0.2779(3) 0.0168(4) 1
loop_
_atom_site_aniso_label
_atom_site_aniso_type_symbol
_atom_site_aniso_U_11
_atom_site_aniso_U_22
_atom_site_aniso_U_33
_atom_site_aniso_U_12
_atom_site_aniso_U_13
_atom_site_aniso_U_23
B1 B3+ 0.0141(13) 0.0090(14) 0.0120(15) 0.0001(10) 0.0006(10) -0.0001(10)
B2 B3+ 0.0155(14) 0.0093(12) 0.0142(16) -0.0008(11) 0.0016(11) -0.0008(12)
B3 B3+ 0.0157(14) 0.0091(12) 0.0166(17) -0.0011(11) 0.0008(11) 0.0031(12)
B4 B3+ 0.0153(14) 0.0083(12) 0.0129(14) -0.0011(10) -0.0006(11) 0.0005(12)
F1 F1- 0.0168(7) 0.0213(8) 0.0204(8) 0.0006(6) -0.0008(7) 0.0022(6)
N1 N3- 0.0208(12) 0.0120(10) 0.0178(13) 0.0010(9) -0.0031(10) 0.0001(11)
O1 O2- 0.0221(9) 0.0091(8) 0.0106(9) 0.0002(7) -0.0027(7) 0.0015(8)
O2 O2- 0.0259(10) 0.0070(8) 0.0118(10) -0.0031(7) -0.0020(8) 0.0007(8)
O3 O2- 0.0218(9) 0.0077(8) 0.0118(10) -0.0011(7) -0.0003(7) -0.0004(8)
O4 O2- 0.0199(9) 0.0079(8) 0.0100(10) -0.0010(7) -0.0008(8) 0.0001(8)
O5 O2- 0.0194(9) 0.0088(8) 0.0124(9) 0.0006(7) -0.0009(8) -0.0001(7)
O6 O2- 0.0294(10) 0.0081(9) 0.0129(10) -0.0025(7) -0.0026(9) 0.0003(8)
#End of TTdata_254161-ICSD