
#(C) 2020 by FIZ Karlsruhe - Leibniz Institute for Information Infrastructure.  All rights reserved.
data_254160-ICSD
_database_code_ICSD 254160
_audit_creation_date 2018-02-01
_chemical_name_common 'Ammonium tetraborate fluoride'
_chemical_formula_structural 'N H4 B4 O6 F'
_chemical_formula_sum 'H4 B4 F1 N1 O6'
_exptl_crystal_density_diffrn 2.09
_diffrn_ambient_temperature 296.
_citation_title
'Finding the next deep-ultraviolet nonlinear optical material: NH4B4O6F'
loop_
_citation_id
_citation_journal_full
_citation_year
_citation_journal_volume
_citation_page_first
_citation_page_last
_citation_journal_id_ASTM
primary 'Journal of the American Chemical Society' 2017 139 10645 10648 JACSAT
loop_
_citation_author_citation_id
_citation_author_name
primary 'Shi, Guoqiang'
primary 'Wang, Ying'
primary 'Zhang, Fangfang'
primary 'Zhang, Bingbing'
primary 'Yang, Zhihua'
primary 'Hou, Xueling'
primary 'Pan, Shilie'
primary 'Poeppelmeier, Kenneth R.'
_cell_length_a 7.602(2)
_cell_length_b 11.197(3)
_cell_length_c 6.5952(19)
_cell_angle_alpha 90
_cell_angle_beta 90
_cell_angle_gamma 90
_cell_volume 561.38
_cell_formula_units_Z 4
_space_group_name_H-M_alt 'P n a 21'
_space_group_IT_number 33
loop_
_space_group_symop_id
_space_group_symop_operation_xyz
1 'x+1/2, -y+1/2, z'
2 '-x+1/2, y+1/2, z+1/2'
3 '-x, -y, z+1/2'
4 'x, y, z'
loop_
_atom_type_symbol
_atom_type_oxidation_number
B3+ 3
F1- -1
N3- -3
H1+ 1
O2- -2
loop_
_atom_site_label
_atom_site_type_symbol
_atom_site_symmetry_multiplicity
_atom_site_Wyckoff_symbol
_atom_site_fract_x
_atom_site_fract_y
_atom_site_fract_z
_atom_site_U_iso_or_equiv
_atom_site_occupancy
B1 B3+ 4 a 0.3037(4) 0.5033(3) 0.3238(5) 0.0204(7) 1
B2 B3+ 4 a 0.2065(4) 0.0829(3) 0.1747(6) 0.0214(7) 1
B3 B3+ 4 a 0.2507(5) 0.3042(3) 0.2144(6) 0.0234(8) 1
B4 B3+ 4 a 0.2049(4) 0.4685(3) -0.0262(6) 0.0218(7) 1
F1 F1- 4 a 0.0266(2) 0.50045(18) -0.0504(4) 0.0372(5) 1
N1 N3- 4 a 0.9849(5) 0.2536(3) 0.6878(6) 0.0349(7) 1
H1 H1+ 4 a 1.047(5) 0.267(3) 0.815(8) 0.042 1
H2 H1+ 4 a 1.057(6) 0.224(4) 0.601(7) 0.042 1
H3 H1+ 4 a 0.915(6) 0.313(4) 0.657(7) 0.042 1
H4 H1+ 4 a 0.921(6) 0.189(4) 0.665(7) 0.042 1
O1 O2- 4 a 0.3042(3) 0.38209(17) 0.3645(3) 0.0249(5) 1
O2 O2- 4 a 0.2109(3) 0.34115(18) 0.0279(3) 0.0281(6) 1
O3 O2- 4 a 0.2062(3) -0.01948(18) 0.2816(3) 0.0236(5) 1
O4 O2- 4 a 0.2774(3) 0.54369(19) 0.1338(3) 0.0233(5) 1
O5 O2- 4 a 0.1684(2) 0.08643(15) -0.0275(3) 0.0225(5) 1
O6 O2- 4 a 0.2418(3) 0.18766(19) 0.2757(4) 0.0308(6) 1
loop_
_atom_site_aniso_label
_atom_site_aniso_type_symbol
_atom_site_aniso_U_11
_atom_site_aniso_U_22
_atom_site_aniso_U_33
_atom_site_aniso_U_12
_atom_site_aniso_U_13
_atom_site_aniso_U_23
B1 B3+ 0.0288(16) 0.0140(16) 0.0185(18) -0.0006(12) 0.0004(13) 0.0019(12)
B2 B3+ 0.0323(19) 0.0142(15) 0.0176(18) 0.0002(13) 0.0006(14) -0.0007(14)
B3 B3+ 0.036(2) 0.0126(14) 0.022(2) -0.0023(14) -0.0011(14) 0.0023(14)
B4 B3+ 0.0322(17) 0.0131(13) 0.0200(17) -0.0009(12) -0.0019(15) 0.0022(14)
F1 F1- 0.0318(9) 0.0426(11) 0.0370(11) 0.0014(8) -0.0032(9) 0.0025(9)
N1 N3- 0.0416(18) 0.0263(15) 0.037(2) 0.0062(13) -0.0088(14) -0.0022(15)
O1 O2- 0.0441(13) 0.0123(9) 0.0183(11) 0.0012(8) -0.0044(9) 0.0001(10)
O2 O2- 0.0520(14) 0.0126(9) 0.0197(13) -0.0072(9) -0.0061(10) 0.0007(9)
O3 O2- 0.0389(12) 0.0140(10) 0.0180(12) -0.0018(9) -0.0027(9) 0.0001(9)
O4 O2- 0.0398(12) 0.0135(9) 0.0167(12) -0.0016(10) -0.0014(10) 0.0003(9)
O5 O2- 0.0361(11) 0.0139(9) 0.0175(11) 0.0016(8) -0.0025(10) -0.0005(9)
O6 O2- 0.0620(16) 0.0121(10) 0.0181(12) -0.0053(9) -0.0052(11) 0.0002(10)
#End of TTdata_254160-ICSD