
#(C) 2020 by FIZ Karlsruhe - Leibniz Institute for Information Infrastructure.  All rights reserved.
data_254205-ICSD
_database_code_ICSD 254205
_audit_creation_date 2018-02-01
_chemical_name_common
'Tripotassium tristrontium dilithium icosaoxo-tetraalumohexaborate  fluoride'
_chemical_formula_structural 'K3 Sr3 Li2 Al4 B6 O20 F'
_chemical_formula_sum 'Al4 B6 F1 K3 Li2 O20 Sr3'
_exptl_crystal_density_diffrn 2.93
_diffrn_ambient_temperature 293.
_citation_title

;
Deep-ultraviolet nonlinear-optical material K3Sr3Li2Al4B6O20F: addressing the
structural instability problem in KBe2BO3F2
;
loop_
_citation_id
_citation_journal_full
_citation_year
_citation_journal_volume
_citation_page_first
_citation_page_last
_citation_journal_id_ASTM
primary 'Inorganic Chemistry' 2017 56 8755 8758 INOCAJ
loop_
_citation_author_citation_id
_citation_author_name
primary 'Wu, Hongping'
primary 'Yu, Hongwei'
primary 'Pan, Shilie'
primary 'Halasyamani, P. Shiv'
_cell_length_a 8.6035(5)
_cell_length_b 8.6035(5)
_cell_length_c 24.007(3)
_cell_angle_alpha 90.
_cell_angle_beta 90.
_cell_angle_gamma 120.
_cell_volume 1538.93
_cell_formula_units_Z 3
_space_group_name_H-M_alt 'R 3 2 H'
_space_group_IT_number 155
loop_
_space_group_symop_id
_space_group_symop_operation_xyz
1 '-x, -x+y, -z'
2 'x-y, -y, -z'
3 'y, x, -z'
4 '-x+y, -x, z'
5 '-y, x-y, z'
6 'x, y, z'
7 '-x+2/3, -x+y+1/3, -z+1/3'
8 'x-y+2/3, -y+1/3, -z+1/3'
9 'y+2/3, x+1/3, -z+1/3'
10 '-x+y+2/3, -x+1/3, z+1/3'
11 '-y+2/3, x-y+1/3, z+1/3'
12 'x+2/3, y+1/3, z+1/3'
13 '-x+1/3, -x+y+2/3, -z+2/3'
14 'x-y+1/3, -y+2/3, -z+2/3'
15 'y+1/3, x+2/3, -z+2/3'
16 '-x+y+1/3, -x+2/3, z+2/3'
17 '-y+1/3, x-y+2/3, z+2/3'
18 'x+1/3, y+2/3, z+2/3'
loop_
_atom_type_symbol
_atom_type_oxidation_number
Li1+ 1
K1+ 1
Sr2+ 2
Al3+ 3
B3+ 3
O2- -2
F1- -1
loop_
_atom_site_label
_atom_site_type_symbol
_atom_site_symmetry_multiplicity
_atom_site_Wyckoff_symbol
_atom_site_fract_x
_atom_site_fract_y
_atom_site_fract_z
_atom_site_U_iso_or_equiv
_atom_site_occupancy
Li1 Li1+ 6 c 0.3333 0.6667 0.5873(3) 0.008(2) 1
K1 K1+ 9 d 0.03336(10) 0.36669(10) 0.6667 0.0213(2) 1
Sr1 Sr2+ 9 e 0.35941(3) 1. 0.5 0.00981(9) 1
Al1 Al3+ 6 c 0. 1. 0.59220(6) 0.0080(3) 1
Al2 Al3+ 6 c -0.3333 0.3333 0.59916(7) 0.0082(3) 1
B1 B3+ 18 f -0.0088(4) 0.6716(4) 0.56796(17) 0.0098(7) 1
O1 O2- 18 f -0.1224(3) 0.4862(3) 0.57280(7) 0.0157(4) 1
O2 O2- 18 f -0.0900(2) 0.7778(3) 0.56890(7) 0.0134(4) 1
O3 O2- 18 f 0.1665(3) 0.7374(2) 0.56059(8) 0.0211(5) 1
O4 O2- 6 c 0. 1. 0.66344(12) 0.0243(9) 1
F1 F1- 3 a 0.3333 0.6667 0.6667 0.0207(9) 1
loop_
_atom_site_aniso_label
_atom_site_aniso_type_symbol
_atom_site_aniso_U_11
_atom_site_aniso_U_22
_atom_site_aniso_U_33
_atom_site_aniso_U_12
_atom_site_aniso_U_13
_atom_site_aniso_U_23
Li1 Li1+ 0.008(3) 0.008(3) 0.008(5) 0.0041(14) 0. 0.
K1 K1+ 0.0208(3) 0.0208(3) 0.0232(5) 0.0110(3) -0.00044(15) 0.00044(15)
Sr1 Sr2+ 0.00994(14) 0.01021(18) 0.00939(17) 0.00510(9) -0.00022(6) -0.00043(12)
Al1 Al3+ 0.0070(5) 0.0070(5) 0.0101(8) 0.0035(2) 0. 0.
Al2 Al3+ 0.0071(4) 0.0071(4) 0.0103(7) 0.0036(2) 0. 0.
B1 B3+ 0.0096(16) 0.0088(16) 0.0108(18) 0.0044(12) -0.0001(12) 0.0016(12)
O1 O2- 0.0114(11) 0.0086(10) 0.0263(11) 0.0045(7) 0.0068(9) 0.0014(9)
O2 O2- 0.0107(8) 0.0091(11) 0.0213(10) 0.0055(9) -0.0036(7) -0.0032(8)
O3 O2- 0.0105(11) 0.0155(9) 0.0371(13) 0.0064(9) 0.0061(9) 0.0110(8)
O4 O2- 0.0314(14) 0.0314(14) 0.0101(19) 0.0157(7) 0. 0.
F1 F1- 0.0217(13) 0.0217(13) 0.019(2) 0.0109(7) 0. 0.
#End of TTdata_254205-ICSD