
#(C) 2020 by FIZ Karlsruhe - Leibniz Institute for Information Infrastructure.  All rights reserved.
data_255442-ICSD
_database_code_ICSD 255442
_audit_creation_date 2018-08-01
_chemical_name_common 'Dilead(II) borate bromide'
_chemical_formula_structural 'Pb2 B O3 Br'
_chemical_formula_sum 'B1 Br1 O3 Pb2'
_exptl_crystal_density_diffrn 6.4
_diffrn_ambient_temperature 296.
_citation_title

;
Pb2BO3Br: a novel nonlinear optical lead borate bromine with a KBBF-type
structure exhibiting strong nonlinear optical response
;
loop_
_citation_id
_citation_journal_full
_citation_year
_citation_journal_volume
_citation_page_first
_citation_page_last
_citation_journal_id_ASTM
primary 'Inorganic Chemistry Frontiers' 2018 5 916 921 ICFNAW
loop_
_citation_author_citation_id
_citation_author_name
primary 'Luo, Min'
primary 'Song, Yunxia'
primary 'Liang, Fei'
primary 'Ye, Ning'
primary 'Lin, Zheshuai'
_cell_length_a 4.9612(17)
_cell_length_b 4.9612(17)
_cell_length_c 6.735(2)
_cell_angle_alpha 90.
_cell_angle_beta 90.
_cell_angle_gamma 120.
_cell_volume 143.56
_cell_formula_units_Z 1
_space_group_name_H-M_alt 'P 3 2 1'
_space_group_IT_number 150
loop_
_space_group_symop_id
_space_group_symop_operation_xyz
1 'x-y, -y, -z'
2 '-x, -x+y, -z'
3 'y, x, -z'
4 '-x+y, -x, z'
5 '-y, x-y, z'
6 'x, y, z'
loop_
_atom_type_symbol
_atom_type_oxidation_number
Pb2+ 2
Br1- -1
B3+ 3
O2- -2
loop_
_atom_site_label
_atom_site_type_symbol
_atom_site_symmetry_multiplicity
_atom_site_Wyckoff_symbol
_atom_site_fract_x
_atom_site_fract_y
_atom_site_fract_z
_atom_site_U_iso_or_equiv
_atom_site_occupancy
Pb1 Pb2+ 2 d 0.3333 0.6667 0.7880(3) 0.0128(7) 1
Br1 Br1- 1 b 0. 1. 0.5 0.0293(18) 1
B1 B3+ 1 a 0. 1. 1. 0.003(10) 1
O1 O2- 3 e 0.266(7) 1. 1. 0.021(8) 1
loop_
_atom_site_aniso_label
_atom_site_aniso_type_symbol
_atom_site_aniso_U_11
_atom_site_aniso_U_22
_atom_site_aniso_U_33
_atom_site_aniso_U_12
_atom_site_aniso_U_13
_atom_site_aniso_U_23
Pb1 Pb2+ 0.0123(7) 0.0123(7) 0.0137(13) 0.0062(4) 0. 0.
Br1 Br1- 0.033(2) 0.033(2) 0.022(5) 0.0164(11) 0. 0.
#End of TTdata_255442-ICSD