
#(C) 2020 by FIZ Karlsruhe - Leibniz Institute for Information Infrastructure.  All rights reserved.
data_255455-ICSD
_database_code_ICSD 255455
_audit_creation_date 2018-08-01
_chemical_name_common 'Cesium dioxo-difluoro-iodate(V)'
_chemical_formula_structural 'Cs (I O2 F2)'
_chemical_formula_sum 'Cs1 F2 I1 O2'
_chemical_name_structure_type KIO2F2
_exptl_crystal_density_diffrn 4.41
_diffrn_ambient_temperature 296.
_citation_title

;
Functional materials design via structural regulation originated from ions
introduction. A study case in cesium iodate system
;
loop_
_citation_id
_citation_journal_full
_citation_year
_citation_journal_volume
_citation_page_first
_citation_page_last
_citation_journal_id_ASTM
primary 'Chemistry of Materials' 2018 30 1136 1145 CMATEX
loop_
_citation_author_citation_id
_citation_author_name
primary 'Zhang, Min'
primary 'Hu, Cong'
primary 'Abudouwufu, Tushagu'
primary 'Yang, Zhihua'
primary 'Pan, Shilie'
_cell_length_a 8.781(3)
_cell_length_b 6.3771(18)
_cell_length_c 8.868(3)
_cell_angle_alpha 90.
_cell_angle_beta 90.
_cell_angle_gamma 90.
_cell_volume 496.58
_cell_formula_units_Z 4
_space_group_name_H-M_alt 'P c a 21'
_space_group_IT_number 29
loop_
_space_group_symop_id
_space_group_symop_operation_xyz
1 'x+1/2, -y, z'
2 '-x+1/2, y, z+1/2'
3 '-x, -y, z+1/2'
4 'x, y, z'
loop_
_atom_type_symbol
_atom_type_oxidation_number
Cs1+ 1
I5+ 5
O2- -2
F1- -1
loop_
_atom_site_label
_atom_site_type_symbol
_atom_site_symmetry_multiplicity
_atom_site_Wyckoff_symbol
_atom_site_fract_x
_atom_site_fract_y
_atom_site_fract_z
_atom_site_U_iso_or_equiv
_atom_site_occupancy
Cs1 Cs1+ 4 a 0.78520(5) 0.47162(7) 0.02371(7) 0.03046(17) 1
I1 I5+ 4 a 1.00905(9) 0.95851(7) -0.20381(5) 0.02029(12) 1
O1 O2- 4 a 0.4727(6) 0.1045(9) -0.0147(6) 0.0408(16) 1
O2 O2- 4 a 0.7989(5) 0.1182(7) 0.2742(7) 0.0350(14) 1
F1 F1- 4 a 0.9312(5) 0.7515(7) 0.3504(7) 0.0535(17) 1
F2 F1- 4 a 0.9408(5) 0.6700(6) -0.2669(6) 0.0346(12) 1
loop_
_atom_site_aniso_label
_atom_site_aniso_type_symbol
_atom_site_aniso_U_11
_atom_site_aniso_U_22
_atom_site_aniso_U_33
_atom_site_aniso_U_12
_atom_site_aniso_U_13
_atom_site_aniso_U_23
Cs1 Cs1+ 0.0305(3) 0.0337(3) 0.0272(3) 0.0052(2) 0.0018(3) 0.0045(5)
I1 I5+ 0.0185(3) 0.02278(19) 0.0196(3) 0.0007(3) -0.0013(3) -0.0020(5)
O1 O2- 0.051(4) 0.058(4) 0.014(3) 0.012(3) 0.001(3) 0.006(3)
O2 O2- 0.019(3) 0.039(3) 0.047(4) 0.006(2) -0.002(3) 0.009(3)
F1 F1- 0.054(4) 0.031(3) 0.075(5) -0.006(2) 0.008(3) 0.014(3)
F2 F1- 0.036(3) 0.034(3) 0.034(3) -0.010(2) 0.005(2) -0.009(2)
#End of TTdata_255455-ICSD