
#(C) 2020 by FIZ Karlsruhe - Leibniz Institute for Information Infrastructure.  All rights reserved.
data_255783-ICSD
_database_code_ICSD 255783
_audit_creation_date 2018-08-01
_chemical_name_common 'Distrontium tetradecaoxo-hexafluoro-pentaborate'
_chemical_formula_structural 'Sr2 B10 O14 F6'
_chemical_formula_sum 'B10 F6 O14 Sr2'
_exptl_crystal_density_diffrn 2.93
_diffrn_ambient_temperature 296.
_citation_title

;
M2B10O14F6 (M = Ca, Sr). Two noncentrosymmetric alkaline earth
fluorooxoborates as promising next-generation deep-ultraviolet nonlinear
optical materials
;
loop_
_citation_id
_citation_journal_full
_citation_year
_citation_journal_volume
_citation_page_first
_citation_page_last
_citation_journal_id_ASTM
primary 'Journal of the American Chemical Society' 2018 140 3884 3887 JACSAT
loop_
_citation_author_citation_id
_citation_author_name
primary 'Luo, Min'
primary 'Liang, Fei'
primary 'Song, Yunxia'
primary 'Zhao, Dan'
primary 'Xu, Feng'
primary 'Ye, Ning'
primary 'Lin, Zheshuai'
_cell_length_a 10.0152
_cell_length_b 8.6663
_cell_length_c 8.1022
_cell_angle_alpha 90.
_cell_angle_beta 90.
_cell_angle_gamma 90.
_cell_volume 703.22
_cell_formula_units_Z 2
_space_group_name_H-M_alt 'C m c 21'
_space_group_IT_number 36
loop_
_space_group_symop_id
_space_group_symop_operation_xyz
1 'x, -y, z+1/2'
2 '-x, -y, z+1/2'
3 '-x, y, z'
4 'x, y, z'
5 'x+1/2, -y+1/2, z+1/2'
6 '-x+1/2, -y+1/2, z+1/2'
7 '-x+1/2, y+1/2, z'
8 'x+1/2, y+1/2, z'
loop_
_atom_type_symbol
_atom_type_oxidation_number
Sr2+ 2
F1- -1
O2- -2
B3+ 3
loop_
_atom_site_label
_atom_site_type_symbol
_atom_site_symmetry_multiplicity
_atom_site_Wyckoff_symbol
_atom_site_fract_x
_atom_site_fract_y
_atom_site_fract_z
_atom_site_U_iso_or_equiv
_atom_site_occupancy
Sr1 Sr2+ 4 a 0.5 0.24242(12) 0.3803(4) 0.0120(3) 1
F1 F1- 8 b 0.1310(4) -0.0180(6) 0.4734(9) 0.0217(13) 1
F2 F1- 4 a 0. 0.4631(7) 0.3626(12) 0.0262(18) 1
O1 O2- 4 a 0. 0.1928(7) 0.3862(16) 0.0095(16) 1
O2 O2- 8 b 0.2426(5) 0.1873(6) 0.3547(8) 0.0149(17) 1
O3 O2- 8 b 0.1146(5) 0.3229(7) 0.1598(7) 0.0148(15) 1
O4 O2- 8 b 0.1478(6) 0.2109(7) 0.6233(7) 0.0143(15) 1
B1 B3+ 8 b 0.1362(9) 0.1469(12) 0.4610(13) 0.012(2) 1
B2 B3+ 8 b 0.2340(11) 0.2640(11) 0.2064(14) 0.015(2) 1
B3 B3+ 4 a 0. 0.3297(15) 0.2658(16) 0.008(3) 1
loop_
_atom_site_aniso_label
_atom_site_aniso_type_symbol
_atom_site_aniso_U_11
_atom_site_aniso_U_22
_atom_site_aniso_U_33
_atom_site_aniso_U_12
_atom_site_aniso_U_13
_atom_site_aniso_U_23
Sr1 Sr2+ 0.0090(5) 0.0147(5) 0.0124(5) 0. 0. -0.0004(7)
F1 F1- 0.015(2) 0.012(3) 0.038(3) -0.002(2) -0.006(3) 0.004(3)
F2 F1- 0.032(4) 0.015(3) 0.031(5) 0. 0. 0.008(5)
O1 O2- 0.003(3) 0.014(4) 0.011(4) 0. 0. -0.003(6)
O2 O2- 0.007(3) 0.025(3) 0.013(5) -0.002(2) 0.000(3) 0.003(4)
O3 O2- 0.005(3) 0.025(4) 0.014(4) 0.000(3) -0.002(3) 0.007(3)
O4 O2- 0.006(3) 0.023(4) 0.014(4) 0.005(3) -0.001(3) -0.008(3)
#End of TTdata_255783-ICSD