
#(C) 2020 by FIZ Karlsruhe - Leibniz Institute for Information Infrastructure.  All rights reserved.
data_255766-ICSD
_database_code_ICSD 255766
_audit_creation_date 2018-08-01
_chemical_name_common
'Heptapotassium lead diyttrium tricontaoxo-pentadecaborate'
_chemical_formula_structural 'K7 Pb Y2 B15 O30'
_chemical_formula_sum 'B15 K7 O30 Pb1 Y2'
_chemical_name_structure_type K7CaY2(B5O10)3
_exptl_crystal_density_diffrn 2.84
_diffrn_ambient_temperature 296.
_citation_title

;
A series of rare-earth borates K7 M RE2 B15 O30 (M = Zn, Cd, Pb; RE = Sc, Y,
Gd, Lu) with large second harmonic generation responses
;
loop_
_citation_id
_citation_journal_full
_citation_year
_citation_journal_volume
_citation_page_first
_citation_page_last
_citation_journal_id_ASTM
primary 'Chemistry of Materials' 2018 30 2414 2423 CMATEX
loop_
_citation_author_citation_id
_citation_author_name
primary 'Xie, Zhiqing'
primary 'Mutailipu, Miriding'
primary 'He, Guijie'
primary 'Han, Guopeng'
primary 'Wang, Ying'
primary 'Yang, Zhihua'
primary 'Zhang, Min'
primary 'Pan, Shilie'
_cell_length_a 13.1034(10)
_cell_length_b 13.1034(10)
_cell_length_c 15.328(2)
_cell_angle_alpha 90.
_cell_angle_beta 90.
_cell_angle_gamma 120.
_cell_volume 2279.2
_cell_formula_units_Z 3
_space_group_name_H-M_alt 'R 3 2 H'
_space_group_IT_number 155
loop_
_space_group_symop_id
_space_group_symop_operation_xyz
1 '-x, -x+y, -z'
2 'x-y, -y, -z'
3 'y, x, -z'
4 '-x+y, -x, z'
5 '-y, x-y, z'
6 'x, y, z'
7 '-x+2/3, -x+y+1/3, -z+1/3'
8 'x-y+2/3, -y+1/3, -z+1/3'
9 'y+2/3, x+1/3, -z+1/3'
10 '-x+y+2/3, -x+1/3, z+1/3'
11 '-y+2/3, x-y+1/3, z+1/3'
12 'x+2/3, y+1/3, z+1/3'
13 '-x+1/3, -x+y+2/3, -z+2/3'
14 'x-y+1/3, -y+2/3, -z+2/3'
15 'y+1/3, x+2/3, -z+2/3'
16 '-x+y+1/3, -x+2/3, z+2/3'
17 '-y+1/3, x-y+2/3, z+2/3'
18 'x+1/3, y+2/3, z+2/3'
loop_
_atom_type_symbol
_atom_type_oxidation_number
Y3+ 3
Pb2+ 2
K1+ 1
B3+ 3
O2- -2
loop_
_atom_site_label
_atom_site_type_symbol
_atom_site_symmetry_multiplicity
_atom_site_Wyckoff_symbol
_atom_site_fract_x
_atom_site_fract_y
_atom_site_fract_z
_atom_site_U_iso_or_equiv
_atom_site_occupancy
Y1 Y3+ 6 c 1. 1. 0.72648(8) 0.0029(3) 1
Pb1 Pb2+ 3 b 0.6667 0.3333 0.8333 0.0271(3) 1
K1 K1+ 9 d 0.5128(3) 0.5128(3) 1. 0.0244(9) 1
K2 K1+ 9 e 0.6667 0.7958(3) 0.8333 0.0220(8) 1
K3 K1+ 3 a 1. 1. 1. 0.0186(10) 1
B1 B3+ 18 f 0.8024(14) 0.5880(10) 0.9479(7) 0.015(2) 1
B2 B3+ 18 f 0.9019(10) 0.7724(10) 0.8675(7) 0.011(2) 1
B3 B3+ 9 d 1. 0.7473(13) 1. 0.012(3) 1
O1 O2- 18 f 0.8987(6) 0.8358(6) 0.8021(4) 0.0116(15) 1
O2 O2- 18 f 0.8060(7) 0.6587(7) 0.8794(6) 0.025(2) 1
O3 O2- 18 f 0.8941(7) 0.6299(7) 1.0057(5) 0.0160(15) 1
O4 O2- 18 f 0.7126(7) 0.4790(7) 0.9564(5) 0.0194(17) 1
O5 O2- 18 f 0.9962(6) 0.8111(6) 0.9221(5) 0.0130(15) 1
loop_
_atom_site_aniso_label
_atom_site_aniso_type_symbol
_atom_site_aniso_U_11
_atom_site_aniso_U_22
_atom_site_aniso_U_33
_atom_site_aniso_U_12
_atom_site_aniso_U_13
_atom_site_aniso_U_23
Y1 Y3+ 0.0031(4) 0.0031(4) 0.0024(6) 0.00157(19) 0. 0.
Pb1 Pb2+ 0.0317(4) 0.0317(4) 0.0180(5) 0.0158(2) 0. 0.
K1 K1+ 0.0191(16) 0.0191(16) 0.0346(18) 0.0093(18) -0.0063(6) 0.0063(6)
K2 K1+ 0.0165(17) 0.0270(14) 0.0191(18) 0.0083(8) -0.0029(13) -0.0014(6)
K3 K1+ 0.0107(14) 0.0107(14) 0.035(3) 0.0053(7) 0. 0.
B1 B3+ 0.019(7) 0.016(5) 0.017(5) 0.014(6) -0.003(6) 0.000(4)
B2 B3+ 0.007(6) 0.016(5) 0.010(5) 0.005(4) 0.000(4) -0.001(4)
B3 B3+ 0.021(8) 0.014(6) 0.005(7) 0.011(4) -0.003(6) -0.002(3)
O1 O2- 0.0118(18) 0.0113(17) 0.0119(17) 0.0057(11) 0.0003(10) 0.0013(9)
O2 O2- 0.024(2) 0.024(2) 0.025(2) 0.0119(13) -0.0024(10) 0.0024(10)
O3 O2- 0.020(4) 0.010(4) 0.014(3) 0.005(3) -0.003(3) 0.005(3)
O4 O2- 0.020(2) 0.0186(19) 0.0196(19) 0.0093(12) -0.0013(10) 0.0015(10)
O5 O2- 0.010(4) 0.009(3) 0.010(3) -0.002(3) -0.003(3) 0.006(3)
#End of TTdata_255766-ICSD