
#(C) 2020 by FIZ Karlsruhe - Leibniz Institute for Information Infrastructure.  All rights reserved.
data_255774-ICSD
_database_code_ICSD 255774
_audit_creation_date 2018-08-01
_chemical_name_common 'Cesium heptaoxo-triboro-silicate'
_chemical_formula_structural 'Cs Si B3 O7'
_chemical_formula_sum 'B3 Cs1 O7 Si1'
_chemical_name_structure_type CsB3GeO7
_exptl_crystal_density_diffrn 3.17
_diffrn_ambient_temperature 293.
_citation_title

;
CsSiB3O7. A beryllium-free deep-ultraviolet nonlinear optical material
discovered by the combination of electron diffraction and first-principles
calculations
;
loop_
_citation_id
_citation_journal_full
_citation_year
_citation_journal_volume
_citation_page_first
_citation_page_last
_citation_journal_id_ASTM
primary 'Chemistry of Materials' 2018 30 2203 2207 CMATEX
loop_
_citation_author_citation_id
_citation_author_name
primary 'Zhou, Zhengyang'
primary 'Qiu, Yi'
primary 'Liang, Fei'
primary 'Palatinus, Lukas'
primary 'Poupon, Morgane'
primary 'Yang, Tao'
primary 'Cong, Rihong'
primary 'Lin, Zheshuai'
primary 'Sun, Junliang'
_cell_length_a 9.2171
_cell_length_b 10.027
_cell_length_c 6.9348
_cell_angle_alpha 90
_cell_angle_beta 90
_cell_angle_gamma 90
_cell_volume 640.91
_cell_formula_units_Z 4
_space_group_name_H-M_alt 'P n a 21'
_space_group_IT_number 33
loop_
_space_group_symop_id
_space_group_symop_operation_xyz
1 'x+1/2, -y+1/2, z'
2 '-x+1/2, y+1/2, z+1/2'
3 '-x, -y, z+1/2'
4 'x, y, z'
loop_
_atom_type_symbol
_atom_type_oxidation_number
Cs1+ 1
Si4+ 4
B3+ 3
O2- -2
loop_
_atom_site_label
_atom_site_type_symbol
_atom_site_symmetry_multiplicity
_atom_site_Wyckoff_symbol
_atom_site_fract_x
_atom_site_fract_y
_atom_site_fract_z
_atom_site_U_iso_or_equiv
_atom_site_occupancy
Cs1 Cs1+ 4 a 0.49036(11) 0.8181(2) 0.00306 0.0187(6) 1
Si1 Si4+ 4 a 0.2639(3) 0.6105(4) 0.4870(5) 0.0006(6) 1
B1 B3+ 4 a 0.0390(6) 0.7929(11) 0.4632(9) 0.001 1
B2 B3+ 4 a 0.3406(6) 0.4484(12) 0.1899(9) 0.001 1
B3 B3+ 4 a 0.3192(6) 0.4915(12) 0.8513(8) 0.001 1
O1 O2- 4 a 0.1049(5) 0.6575(8) 0.4254(6) 0.0042(9) 1
O2 O2- 4 a 0.0789(5) 0.8413(9) 0.6534(6) 0.0064(10) 1
O3 O2- 4 a 0.0936(5) 0.8931(8) 0.3096(7) 0.0061(10) 1
O4 O2- 4 a 0.2561(5) 0.5720(8) 0.7159(7) 0.0076(10) 1
O5 O2- 4 a 0.2944(4) 0.5308(8) 0.0420(6) 0.0057(10) 1
O6 O2- 4 a 0.3840(5) 0.7222(8) 0.4476(6) 0.0068(10) 1
O7 O2- 4 a 0.2961(5) 0.4737(8) 0.3746(7) 0.0059(10) 1
loop_
_atom_site_aniso_label
_atom_site_aniso_type_symbol
_atom_site_aniso_U_11
_atom_site_aniso_U_22
_atom_site_aniso_U_33
_atom_site_aniso_U_12
_atom_site_aniso_U_13
_atom_site_aniso_U_23
Cs1 Cs1+ 0.0205(5) 0.0215(15) 0.0142(4) 0.0036(6) -0.0001(5) 0.0017(8)
#End of TTdata_255774-ICSD