
#(C) 2020 by FIZ Karlsruhe - Leibniz Institute for Information Infrastructure.  All rights reserved.
data_255782-ICSD
_database_code_ICSD 255782
_audit_creation_date 2018-08-01
_chemical_name_common 'Dicalcium tetradecaoxo-hexafluoro-pentaborate'
_chemical_formula_structural 'Ca2 B10 O14 F6'
_chemical_formula_sum 'B10 Ca2 F6 O14'
_exptl_crystal_density_diffrn 2.63
_diffrn_ambient_temperature 296.
_citation_title

;
M2B10O14F6 (M = Ca, Sr). Two noncentrosymmetric alkaline earth
fluorooxoborates as promising next-generation deep-ultraviolet nonlinear
optical materials
;
loop_
_citation_id
_citation_journal_full
_citation_year
_citation_journal_volume
_citation_page_first
_citation_page_last
_citation_journal_id_ASTM
primary 'Journal of the American Chemical Society' 2018 140 3884 3887 JACSAT
loop_
_citation_author_citation_id
_citation_author_name
primary 'Luo, Min'
primary 'Liang, Fei'
primary 'Song, Yunxia'
primary 'Zhao, Dan'
primary 'Xu, Feng'
primary 'Ye, Ning'
primary 'Lin, Zheshuai'
_cell_length_a 9.9114
_cell_length_b 8.402
_cell_length_c 7.966
_cell_angle_alpha 90.
_cell_angle_beta 90.
_cell_angle_gamma 90.
_cell_volume 663.37
_cell_formula_units_Z 2
_space_group_name_H-M_alt 'C m c 21'
_space_group_IT_number 36
loop_
_space_group_symop_id
_space_group_symop_operation_xyz
1 'x, -y, z+1/2'
2 '-x, -y, z+1/2'
3 '-x, y, z'
4 'x, y, z'
5 'x+1/2, -y+1/2, z+1/2'
6 '-x+1/2, -y+1/2, z+1/2'
7 '-x+1/2, y+1/2, z'
8 'x+1/2, y+1/2, z'
loop_
_atom_type_symbol
_atom_type_oxidation_number
Ca2+ 2
F1- -1
O2- -2
B3+ 3
loop_
_atom_site_label
_atom_site_type_symbol
_atom_site_symmetry_multiplicity
_atom_site_Wyckoff_symbol
_atom_site_fract_x
_atom_site_fract_y
_atom_site_fract_z
_atom_site_U_iso_or_equiv
_atom_site_occupancy
Ca1 Ca2+ 4 a 0.5 0.75921(11) 0.61752(15) 0.0101(2) 1
F1 F1- 8 b 0.86970(16) 1.0283(2) 0.5285(3) 0.0198(5) 1
F2 F1- 4 a 1. 0.5297(3) 0.6398(4) 0.0205(7) 1
O1 O2- 4 a 1. 0.8100(3) 0.6162(5) 0.0083(6) 1
O2 O2- 8 b 0.7553(2) 0.8149(3) 0.6455(3) 0.0123(6) 1
O3 O2- 8 b 0.8843(2) 0.6749(3) 0.8477(3) 0.0120(6) 1
O4 O2- 8 b 0.8555(2) 0.7931(3) 0.3729(3) 0.0139(6) 1
B1 B3+ 8 b 0.8660(3) 0.8607(5) 0.5392(4) 0.0086(7) 1
B2 B3+ 8 b 0.7646(3) 0.7316(4) 0.7918(5) 0.0114(7) 1
B3 B3+ 4 a 1. 0.6710(7) 0.7376(7) 0.0091(10) 1
loop_
_atom_site_aniso_label
_atom_site_aniso_type_symbol
_atom_site_aniso_U_11
_atom_site_aniso_U_22
_atom_site_aniso_U_33
_atom_site_aniso_U_12
_atom_site_aniso_U_13
_atom_site_aniso_U_23
Ca1 Ca2+ 0.0093(4) 0.0106(4) 0.0103(4) 0. 0. -0.0004(4)
F1 F1- 0.0157(9) 0.0126(11) 0.0310(11) -0.0001(7) -0.0052(9) 0.0040(10)
F2 F1- 0.0279(14) 0.0102(13) 0.0235(17) 0. 0. -0.0040(14)
O1 O2- 0.0056(12) 0.0108(13) 0.0087(15) 0. 0. 0.000(2)
O2 O2- 0.0072(9) 0.0213(12) 0.0083(15) 0.0007(9) 0.0022(9) 0.0023(10)
O3 O2- 0.0064(10) 0.0187(14) 0.0108(13) 0.0002(10) 0.0019(9) 0.0050(10)
O4 O2- 0.0077(12) 0.0231(16) 0.0108(13) -0.0006(10) -0.0004(9) -0.0038(11)
B1 B3+ 0.0069(16) 0.0109(18) 0.0079(18) 0.0006(12) -0.0008(13) 0.0006(14)
B2 B3+ 0.0103(16) 0.0143(18) 0.0096(18) -0.0039(14) 0.0019(13) -0.0001(15)
B3 B3+ 0.006(2) 0.008(3) 0.013(3) 0. 0. 0.0009(19)
#End of TTdata_255782-ICSD