
#(C) 2020 by FIZ Karlsruhe - Leibniz Institute for Information Infrastructure.  All rights reserved.
data_257741-ICSD
_database_code_ICSD 257741
_audit_creation_date 2018-02-01
_chemical_name_common 'Lithium aluminium germanate'
_chemical_formula_structural 'Li Al Ge O4'
_chemical_formula_sum 'Al1 Ge1 Li1 O4'
_chemical_name_structure_type LiGaSiO4
_exptl_crystal_density_diffrn 3.37
_citation_title

;
Crystal structure and Li-Ion conductivity of LiGa1-xAlxGeO4 phenacite
compounds with 0 <= x <= 1
;
loop_
_citation_id
_citation_journal_full
_citation_year
_citation_journal_volume
_citation_page_first
_citation_page_last
_citation_journal_id_ASTM
primary 'Journal of the Electrochemical Society' 2016 163 A2371 A2376 JESOAN
loop_
_citation_author_citation_id
_citation_author_name
primary 'Mukai, Kazuhiko'
primary 'Nunotani, Naoyoshi'
_cell_length_a 13.772(1)
_cell_length_b 13.772(1)
_cell_length_c 9.195(1)
_cell_angle_alpha 90.
_cell_angle_beta 90.
_cell_angle_gamma 120.
_cell_volume 1510.35
_cell_formula_units_Z 18
_space_group_name_H-M_alt 'R 3 H'
_space_group_IT_number 146
loop_
_space_group_symop_id
_space_group_symop_operation_xyz
1 '-x+y, -x, z'
2 '-y, x-y, z'
3 'x, y, z'
4 '-x+y+2/3, -x+1/3, z+1/3'
5 '-y+2/3, x-y+1/3, z+1/3'
6 'x+2/3, y+1/3, z+1/3'
7 '-x+y+1/3, -x+2/3, z+2/3'
8 '-y+1/3, x-y+2/3, z+2/3'
9 'x+1/3, y+2/3, z+2/3'
loop_
_atom_type_symbol
_atom_type_oxidation_number
Li1+ 1
Al3+ 3
Ge4+ 4
O2- -2
loop_
_atom_site_label
_atom_site_type_symbol
_atom_site_symmetry_multiplicity
_atom_site_Wyckoff_symbol
_atom_site_fract_x
_atom_site_fract_y
_atom_site_fract_z
_atom_site_B_iso_or_equiv
_atom_site_occupancy
Li1 Li1+ 9 b 0.114(1) 0.481(1) 0.099(1) 0.9(1) 1.
Li2 Li1+ 9 b 0.9973(1) 0.786(1) 0.928(1) 0.9(1) 1.
Al1 Al3+ 9 b 0.454(1) 0.141(1) 0.088(1) 0.7(1) 1.
Al2 Al3+ 9 b 0.544(1) 0.863(1) 0.921(1) 0.7(1) 1.
Ge1 Ge4+ 9 b 0.880(1) 0.528(1) 0.922(1) 0.6(1) 1.
Ge2 Ge4+ 9 b 0.017(1) 0.213(1) 0.089(1) 0.6(1) 1.
O1 O2- 9 b 0.554(1) 0.411(1) 0.088(1) 0.8(1) 1.
O2 O2- 9 b 0.460(1) 0.574(1) 0.915(1) 0.8(1) 1.
O3 O2- 9 b 0.008(1) 0.340(1) 0.097(1) 0.8(1) 1.
O4 O2- 9 b 0.982(1) 0.647(1) 0.935(1) 0.8(1) 1.
O5 O2- 9 b 0.196(1) 0.105(1) 0.110(1) 0.8(1) 1.
O6 O2- 9 b 0.785(1) 0.872(1) 0.938(1) 0.8(1) 1.
O7 O2- 9 b 0.270(1) 0.482(1) 0.095(1) 0.8(1) 1.
O8 O2- 9 b 0.769(1) 0.562(1) 0.943(1) 0.8(1) 1.
#End of TTdata_257741-ICSD