
#(C) 2020 by FIZ Karlsruhe - Leibniz Institute for Information Infrastructure.  All rights reserved.
data_25815-ICSD
_database_code_ICSD 25815
_audit_creation_date 1980-01-01
_chemical_name_common 'Cesium triborate'
_chemical_formula_structural 'Cs2 O (B2 O3)3'
_chemical_formula_sum 'B6 Cs2 O10'
_chemical_name_structure_type CsB3O5
_exptl_crystal_density_diffrn 3.39
_citation_title 'The Crystal Structure of Cesium Triborate, Cs2 O (B2 O3)3'
loop_
_citation_id
_citation_journal_full
_citation_year
_citation_journal_volume
_citation_page_first
_citation_page_last
_citation_journal_id_ASTM
primary 'Acta Crystallographica' 1960 13 889 892 ACCRA9
loop_
_citation_author_citation_id
_citation_author_name
primary 'Krogh-Moe, J.'
_cell_length_a 6.18
_cell_length_b 8.48
_cell_length_c 9.17
_cell_angle_alpha 90.
_cell_angle_beta 90.
_cell_angle_gamma 90.
_cell_volume 480.57
_cell_formula_units_Z 2
_space_group_name_H-M_alt 'P 21 21 21'
_space_group_IT_number 19
loop_
_space_group_symop_id
_space_group_symop_operation_xyz
1 '-x, y+1/2, -z+1/2'
2 'x+1/2, -y+1/2, -z'
3 '-x+1/2, -y, z+1/2'
4 'x, y, z'
loop_
_atom_type_symbol
_atom_type_oxidation_number
Cs1+ 1
O2- -2
B3+ 3
loop_
_atom_site_label
_atom_site_type_symbol
_atom_site_symmetry_multiplicity
_atom_site_Wyckoff_symbol
_atom_site_fract_x
_atom_site_fract_y
_atom_site_fract_z
_atom_site_B_iso_or_equiv
_atom_site_occupancy
Cs1 Cs1+ 4 a 0.981 0.262 0.13 1.2 1.
O1 O2- 4 a 0.421 0.565 0.056 1.2 1.
O2 O2- 4 a 0.688 0.529 0.242 1.2 1.
O3 O2- 4 a 0.767 0.705 0.043 1.2 1.
O4 O2- 4 a 0.468 0.769 0.213 1.2 1.
O5 O2- 4 a 0.615 0.972 0.093 1.2 1.
B1 B3+ 4 a 0.769 0.871 0.033 1.2 1.
B2 B3+ 4 a 0.461 0.927 0.203 1.2 1.
B3 B3+ 4 a 0.589 0.646 0.138 1.2 1.
#End of TTdata_25815-ICSD