
#(C) 2020 by FIZ Karlsruhe - Leibniz Institute for Information Infrastructure.  All rights reserved.
data_258333-ICSD
_database_code_ICSD 258333
_audit_creation_date 2018-02-01
_chemical_name_common 'Lead borate chloride'
_chemical_formula_structural 'Pb2 B O3 Cl'
_chemical_formula_sum 'B1 Cl1 O3 Pb2'
_exptl_crystal_density_diffrn 6.27
_citation_title

;
Pb2BO3Cl: a Tailor-Made polar lead borate chloride with very strong second
harmonic generation
;
loop_
_citation_id
_citation_journal_full
_citation_year
_citation_journal_volume
_citation_page_first
_citation_page_last
_citation_journal_id_ASTM
primary 'Angewandte Chemie, International Edition' 2016 55 12078 12082 ACIEF5
loop_
_citation_author_citation_id
_citation_author_name
primary 'Zou, Guohong'
primary 'Lin, Chensheng'
primary 'Jo, Hongil'
primary 'Nam, Gnu'
primary 'You, Tae-Soo'
primary 'Ok, Kang Min'
_cell_length_a 4.93090(10)
_cell_length_b 4.93090(10)
_cell_length_c 6.3942(2)
_cell_angle_alpha 90.
_cell_angle_beta 90.
_cell_angle_gamma 120.
_cell_volume 134.64
_cell_formula_units_Z 1
_space_group_name_H-M_alt 'P 3 2 1'
_space_group_IT_number 150
loop_
_space_group_symop_id
_space_group_symop_operation_xyz
1 'x-y, -y, -z'
2 '-x, -x+y, -z'
3 'y, x, -z'
4 '-x+y, -x, z'
5 '-y, x-y, z'
6 'x, y, z'
loop_
_atom_type_symbol
_atom_type_oxidation_number
Pb2+ 2
Cl1- -1
O2- -2
B3+ 3
loop_
_atom_site_label
_atom_site_type_symbol
_atom_site_symmetry_multiplicity
_atom_site_Wyckoff_symbol
_atom_site_fract_x
_atom_site_fract_y
_atom_site_fract_z
_atom_site_U_iso_or_equiv
_atom_site_occupancy
Pb1 Pb2+ 2 d 0.3333 0.6667 0.22385(11) 0.0156(4) 1.
Cl1 Cl1- 1 b 0 0 0.5 0.0304(17) 1.
O1 O2- 3 e 0.278(3) 0.278(3) 0 0.022(4) 1.
B1 B3+ 1 a 0 1 0 0.016(6) 1.
#End of TTdata_258333-ICSD