
#(C) 2020 by FIZ Karlsruhe - Leibniz Institute for Information Infrastructure.  All rights reserved.
data_258580-ICSD
_database_code_ICSD 258580
_audit_creation_date 2018-02-01
_chemical_name_common 'Aluminum borate'
_chemical_formula_structural 'Al20 B4 O36'
_chemical_formula_sum 'Al20 B4 O36'
_chemical_name_structure_type Al5(BO3)O6
_exptl_crystal_density_diffrn 2.94
_citation_title
'Crystal chemical characterization of mullite-type aluminum borate compounds'
loop_
_citation_id
_citation_journal_full
_citation_year
_citation_journal_volume
_citation_page_first
_citation_page_last
_citation_journal_id_ASTM
primary 'Journal of Solid State Chemistry' 2017 247 173 187 JSSCBI
loop_
_citation_author_citation_id
_citation_author_name
primary 'Hoffmann, K.'
primary 'Hooper, T.J.N.'
primary 'Zhao, H.'
primary 'Kolb, U.'
primary 'Murshed, M.M.'
primary 'Fischer, M.'
primary 'Luehrs, H.'
primary 'Nenert, G.'
primary 'Kudejova, P.'
primary 'Senyshyn, A.'
primary 'Schneider, H.'
primary 'Hanna, J.V.'
primary 'Gesing, T.M.'
primary 'Fischer, R.X.'
_cell_length_a 7.6942(1)
_cell_length_b 15.0187(3)
_cell_length_c 5.66429(8)
_cell_angle_alpha 90.
_cell_angle_beta 90.
_cell_angle_gamma 90.
_cell_volume 654.55
_cell_formula_units_Z 1
_space_group_name_H-M_alt 'A 21 a m'
_space_group_IT_number 36
loop_
_space_group_symop_id
_space_group_symop_operation_xyz
1 'x+1/2, -y, z'
2 'x+1/2, -y, -z'
3 'x, y, -z'
4 'x, y, z'
5 'x+1/2, -y+1/2, z+1/2'
6 'x+1/2, -y+1/2, -z+1/2'
7 'x, y+1/2, -z+1/2'
8 'x, y+1/2, z+1/2'
loop_
_atom_type_symbol
_atom_type_oxidation_number
B3+ 3
Al3+ 3
O2- -2
loop_
_atom_site_label
_atom_site_type_symbol
_atom_site_symmetry_multiplicity
_atom_site_Wyckoff_symbol
_atom_site_fract_x
_atom_site_fract_y
_atom_site_fract_z
_atom_site_B_iso_or_equiv
_atom_site_occupancy
B1 B3+ 4 a 0.7197(5) 0.0155(2) 0 0.2 1.
Al1 Al3+ 8 b 0.5 0.3832(1) 0.24794 0.14(3) 1.
Al2 Al3+ 4 a 0.6881(4) 0.2445(2) 0.5 0.23(5) 1.
Al3 Al3+ 4 a 0.6810(5) 0.0549(2) 0.5 0.42(5) 1.
Al4 Al3+ 4 a 0.8323(5) 0.2974(2) 0 0.15(5) 1.
O1 O2- 8 b 0.7846(4) 0.0479(1) 0.2117(3) 0.33(3) 1.
O2 O2- 8 b 0.7012(4) 0.3103(1) 0.2426(3) 0.22(3) 1.
O3 O2- 4 a 0.5369(4) 0.1480(2) 0.5 0.31(4) 1.
O4 O2- 4 a 0.9351(5) 0.1923(2) 0 0.21(4) 1.
O5 O2- 4 a 0.8704(4) 0.1703(2) 0.5 0.21(4) 1.
O6 O2- 4 a 0.5729(4) 0.4548(2) 0 0.12(4) 1.
O7 O2- 4 a 0.5916(4) 0.4529(2) 0.5 0.43(4) 1.
#End of TTdata_258580-ICSD