
#(C) 2020 by FIZ Karlsruhe - Leibniz Institute for Information Infrastructure.  All rights reserved.
data_260113-ICSD
_database_code_ICSD 260113
_audit_creation_date 2009-02-01
_audit_update_record 2014-08-01
_chemical_name_common 'Cesium triborogermanate'
_chemical_formula_structural 'Cs B3 Ge O7'
_chemical_formula_sum 'B3 Cs1 Ge1 O7'
_chemical_name_structure_type CsB3GeO7
_exptl_crystal_density_diffrn 3.54
_diffrn_ambient_temperature 293.
_citation_title

;
Cs B3 Ge O7 and K2 B2 Ge3 O10: Explorations of new second - order nonlinear
optical materials in the borogermanate systems
;
loop_
_citation_id
_citation_journal_full
_citation_year
_citation_journal_volume
_citation_page_first
_citation_page_last
_citation_journal_id_ASTM
primary 'Inorganic Chemistry' 2008 47 10611 10617 INOCAJ
loop_
_citation_author_citation_id
_citation_author_name
primary 'Kong Fang'
primary 'Jiang Hailong'
primary 'Hu Ting'
primary 'Mao Jiang Gao'
_cell_length_a 9.542(3)
_cell_length_b 9.823(3)
_cell_length_c 7.009(2)
_cell_angle_alpha 90.
_cell_angle_beta 90.
_cell_angle_gamma 90.
_cell_volume 656.96
_cell_formula_units_Z 4
_space_group_name_H-M_alt 'P n a 21'
_space_group_IT_number 33
loop_
_space_group_symop_id
_space_group_symop_operation_xyz
1 'x+1/2, -y+1/2, z'
2 '-x+1/2, y+1/2, z+1/2'
3 '-x, -y, z+1/2'
4 'x, y, z'
loop_
_atom_type_symbol
_atom_type_oxidation_number
Cs1+ 1
Ge4+ 4
B3+ 3
O2- -2
loop_
_atom_site_label
_atom_site_type_symbol
_atom_site_symmetry_multiplicity
_atom_site_Wyckoff_symbol
_atom_site_fract_x
_atom_site_fract_y
_atom_site_fract_z
_atom_site_U_iso_or_equiv
_atom_site_occupancy
Cs1 Cs1+ 4 a 0.496520(16) 0.827026(17) 0.00571(7) 0.01862(7) 1
Ge1 Ge4+ 4 a 0.26987(2) 0.60956(2) 0.49403(7) 0.00716(8) 1
B1 B3+ 4 a 0.0394(3) 0.7822(3) 0.4605(5) 0.0094(8) 1
B2 B3+ 4 a 0.3476(4) 0.4354(4) 0.1971(6) 0.0111(8) 1
B3 B3+ 4 a 0.3251(4) 0.4891(4) 0.8668(6) 0.0115(8) 1
O1 O2- 4 a 0.1014(2) 0.6478(2) 0.4202(4) 0.0114(5) 1
O2 O2- 4 a 0.0742(3) 0.8256(2) 0.6539(4) 0.0117(5) 1
O3 O2- 4 a 0.0919(3) 0.8837(2) 0.3188(4) 0.0109(5) 1
O4 O2- 4 a 0.2614(2) 0.5753(2) 0.7399(4) 0.0148(5) 1
O5 O2- 4 a 0.2992(3) 0.5219(2) 0.0571(3) 0.0155(6) 1
O6 O2- 4 a 0.3875(2) 0.7365(2) 0.4377(3) 0.0116(5) 1
O7 O2- 4 a 0.3125(2) 0.4531(2) 0.3853(4) 0.0128(5) 1
loop_
_atom_site_aniso_label
_atom_site_aniso_type_symbol
_atom_site_aniso_U_11
_atom_site_aniso_U_22
_atom_site_aniso_U_33
_atom_site_aniso_U_12
_atom_site_aniso_U_13
_atom_site_aniso_U_23
Cs1 Cs1+ 0.02301(11) 0.02026(10) 0.01259(12) 0.00457(6) -0.00088(12)
-0.00036(15)
Ge1 Ge4+ 0.00843(13) 0.00756(12) 0.00548(15) 0.00076(8) 0.0000(2) -0.00011(19)
B1 B3+ 0.0110(13) 0.0096(13) 0.008(2) 0.0006(12) -0.0001(13) 0.0001(13)
B2 B3+ 0.0098(18) 0.0134(16) 0.010(2) -0.0001(14) 0.0018(14) -0.0016(15)
B3 B3+ 0.0104(19) 0.0155(19) 0.009(2) -0.0020(15) -0.0005(15) 0.0018(15)
O1 O2- 0.0078(10) 0.0107(10) 0.0159(13) 0.0006(8) -0.0030(8) -0.0017(9)
O2 O2- 0.0172(12) 0.0123(11) 0.0056(14) -0.0043(9) -0.0010(9) -0.0001(10)
O3 O2- 0.0171(12) 0.0109(11) 0.0048(13) -0.0018(9) -0.0018(10) 0.0013(9)
O4 O2- 0.0199(12) 0.0181(11) 0.0064(13) 0.0082(9) 0.0006(10) 0.0051(10)
O5 O2- 0.0231(12) 0.0159(11) 0.0074(15) 0.0078(9) 0.0017(10) -0.0019(9)
O6 O2- 0.0087(9) 0.0104(10) 0.0157(14) -0.0004(8) -0.0013(8) 0.0030(8)
O7 O2- 0.0186(11) 0.0124(11) 0.0073(13) 0.0015(9) 0.0018(10) -0.0016(9)
#End of TTdata_260113-ICSD