
#(C) 2020 by FIZ Karlsruhe - Leibniz Institute for Information Infrastructure.  All rights reserved.
data_260114-ICSD
_database_code_ICSD 260114
_audit_creation_date 2009-02-01
_chemical_name_common 'Dipotassium diborotrigermanate'
_chemical_formula_structural 'K2 (B2 Ge3 O10)'
_chemical_formula_sum 'B2 Ge3 K2 O10'
_exptl_crystal_density_diffrn 3.64
_diffrn_ambient_temperature 293.
_citation_title

;
Cs B3 Ge O7 and K2 B2 Ge3 O10: Explorations of new second - order nonlinear
optical materials in the borogermanate systems
;
loop_
_citation_id
_citation_journal_full
_citation_year
_citation_journal_volume
_citation_page_first
_citation_page_last
_citation_journal_id_ASTM
primary 'Inorganic Chemistry' 2008 47 10611 10617 INOCAJ
loop_
_citation_author_citation_id
_citation_author_name
primary 'Kong Fang'
primary 'Jiang Hailong'
primary 'Hu Ting'
primary 'Mao Jiang Gao'
_cell_length_a 11.860(6)
_cell_length_b 6.160(2)
_cell_length_c 12.000(9)
_cell_angle_alpha 90.
_cell_angle_beta 96.696(6)
_cell_angle_gamma 90.
_cell_volume 870.71
_cell_formula_units_Z 4
_space_group_name_H-M_alt 'I 1 2 1'
_space_group_IT_number 5
loop_
_space_group_symop_id
_space_group_symop_operation_xyz
1 '-x, y, -z'
2 'x, y, z'
3 '-x+1/2, y+1/2, -z+1/2'
4 'x+1/2, y+1/2, z+1/2'
loop_
_atom_type_symbol
_atom_type_oxidation_number
K1+ 1
Ge4+ 4
B3+ 3
O2- -2
loop_
_atom_site_label
_atom_site_type_symbol
_atom_site_symmetry_multiplicity
_atom_site_Wyckoff_symbol
_atom_site_fract_x
_atom_site_fract_y
_atom_site_fract_z
_atom_site_U_iso_or_equiv
_atom_site_occupancy
K1 K1+ 4 c 0.85293(10) 1.0537(2) 0.73789(10) 0.0175(3) 1
K2 K1+ 4 c 0.76286(11) 0.8065(2) 1.14935(10) 0.0188(3) 1
Ge1 Ge4+ 2 a 1. 0.89848(13) 1. 0.00906(18) 1
Ge2 Ge4+ 4 c 0.86506(4) 1.31997(8) 1.04201(4) 0.00764(13) 1
Ge3 Ge4+ 4 c 0.56078(4) 1.06694(9) 0.87556(4) 0.00823(12) 1
Ge4 Ge4+ 2 b 0.5 0.64326(12) 1. 0.01155(18) 1
B1 B3+ 4 c 1.0647(5) 0.5476(10) 1.1401(4) 0.008 1
B2 B3+ 4 c 0.6326(5) 1.3014(10) 1.0787(4) 0.008 1
O1 O2- 4 c 0.9994(3) 0.7512(6) 1.1212(3) 0.0117(8) 1
O2 O2- 4 c 0.8753(3) 1.0550(7) 0.9882(3) 0.0109(7) 1
O3 O2- 4 c 0.9878(3) 1.3570(6) 1.1357(3) 0.0096(7) 1
O4 O2- 4 c 0.8489(3) 1.5183(6) 0.9386(3) 0.0099(8) 1
O5 O2- 4 c 0.7575(3) 1.3157(7) 1.1279(3) 0.0117(7) 1
O6 O2- 4 c 0.5808(3) 1.5052(6) 1.1050(3) 0.0116(8) 1
O7 O2- 4 c 0.6326(3) 1.2660(6) 0.9565(3) 0.0085(7) 1
O8 O2- 4 c 0.4154(3) 1.1127(6) 0.8640(3) 0.0127(8) 1
O9 O2- 4 c 0.6266(3) 1.0591(7) 0.7545(3) 0.0121(7) 1
O10 O2- 4 c 0.5907(3) 0.8094(6) 0.9338(3) 0.0125(7) 1
loop_
_atom_site_aniso_label
_atom_site_aniso_type_symbol
_atom_site_aniso_U_11
_atom_site_aniso_U_22
_atom_site_aniso_U_33
_atom_site_aniso_U_12
_atom_site_aniso_U_13
_atom_site_aniso_U_23
K1 K1+ 0.0158(6) 0.0177(6) 0.0190(6) 0.0000(5) 0.0020(5) 0.0031(5)
K2 K1+ 0.0194(6) 0.0173(6) 0.0205(6) -0.0014(6) 0.0060(5) -0.0001(5)
Ge1 Ge4+ 0.0093(4) 0.0084(3) 0.0097(4) 0. 0.0018(3) 0.
Ge2 Ge4+ 0.0073(3) 0.0071(2) 0.0088(2) 0.0002(2) 0.00220(19) 0.0007(2)
Ge3 Ge4+ 0.0084(3) 0.0079(2) 0.0087(2) -0.0005(2) 0.00213(19) -0.0003(2)
Ge4 Ge4+ 0.0127(4) 0.0098(4) 0.0123(4) 0. 0.0023(3) 0.
O1 O2- 0.014(2) 0.0140(19) 0.0079(17) -0.0004(15) 0.0030(15) -0.0020(14)
O2 O2- 0.0093(17) 0.0108(17) 0.0125(17) 0.0005(16) 0.0004(14) 0.0018(16)
O3 O2- 0.0108(18) 0.0064(19) 0.0109(17) 0.0003(14) -0.0015(14) 0.0024(13)
O4 O2- 0.0113(18) 0.010(2) 0.0091(17) 0.0004(14) 0.0020(14) 0.0032(13)
O5 O2- 0.0076(17) 0.0169(18) 0.0103(17) -0.0028(17) 0.0001(13) 0.0029(17)
O6 O2- 0.0102(19) 0.011(2) 0.0140(19) 0.0001(14) 0.0030(15) -0.0036(14)
O7 O2- 0.0100(19) 0.0079(18) 0.0078(16) -0.0002(14) 0.0020(14) -0.0011(13)
O8 O2- 0.0135(19) 0.010(2) 0.0156(19) 0.0004(14) 0.0040(15) -0.0047(13)
O9 O2- 0.0073(17) 0.0178(17) 0.0105(17) 0.0011(17) -0.0018(14) -0.0026(17)
O10 O2- 0.0118(17) 0.0097(17) 0.0163(18) 0.0038(16) 0.0034(14) 0.0040(16)
#End of TTdata_260114-ICSD