
#(C) 2020 by FIZ Karlsruhe - Leibniz Institute for Information Infrastructure.  All rights reserved.
data_260309-ICSD
_database_code_ICSD 260309
_audit_creation_date 2009-08-01
_chemical_name_common 'Bis(ammonium) aluminium pentaborate tetrahydrate'
_chemical_formula_structural '(N H4)2 Al (B5 O10) (H2 O)4'
_chemical_formula_sum 'H16 Al1 B5 N2 O14'
_exptl_crystal_density_diffrn 1.67
_diffrn_ambient_temperature 293.
_citation_title
'Aluminoborates with open frameworks: Syntheses, structures, and properties'
loop_
_citation_id
_citation_journal_full
_citation_year
_citation_journal_volume
_citation_page_first
_citation_page_last
_citation_journal_id_ASTM
primary 'Inorganic Chemistry' 2009 48 3650 3659 INOCAJ
loop_
_citation_author_citation_id
_citation_author_name
primary 'Rong Cheng'
primary 'Yu Zhiwu'
primary 'Wang Qiang'
primary 'Zheng Shou Tian'
primary 'Pan Chunyang'
primary 'Deng Feng'
primary 'Yang Guoyu'
_cell_length_a 9.335(4)
_cell_length_b 10.487(5)
_cell_length_c 14.165(7)
_cell_angle_alpha 90.
_cell_angle_beta 90.
_cell_angle_gamma 90.
_cell_volume 1386.7
_cell_formula_units_Z 4
_space_group_name_H-M_alt 'C 2 2 21'
_space_group_IT_number 20
loop_
_space_group_symop_id
_space_group_symop_operation_xyz
1 '-x, y, -z+1/2'
2 '-x, -y, z+1/2'
3 'x, -y, -z'
4 'x, y, z'
5 '-x+1/2, y+1/2, -z+1/2'
6 '-x+1/2, -y+1/2, z+1/2'
7 'x+1/2, -y+1/2, -z'
8 'x+1/2, y+1/2, z'
loop_
_atom_type_symbol
_atom_type_oxidation_number
Al3+ 3
B3+ 3
O2- -2
N3- -3
H1+ 1
loop_
_atom_site_label
_atom_site_type_symbol
_atom_site_symmetry_multiplicity
_atom_site_Wyckoff_symbol
_atom_site_fract_x
_atom_site_fract_y
_atom_site_fract_z
_atom_site_U_iso_or_equiv
_atom_site_occupancy
Al1 Al3+ 4 a 0.13786(6) 0. 1.5 0.01397(16) 1
B1 B3+ 8 c 0.33218(19) 0.11212(18) 1.37162(13) 0.0180(4) 1
B2 B3+ 8 c 0.4902(2) 0.28594(17) 1.41441(13) 0.0199(4) 1
B3 B3+ 4 b 0.5 0.2002(2) 1.25 0.0190(5) 1
O1 O2- 8 c 0.38333(15) 0.19892(13) 1.43758(9) 0.0299(3) 1
O2 O2- 4 a 0.2693(4) 0. 1. 0.1124(19) 1
O3 O2- 8 c 0.55121(14) 0.28219(13) 1.32713(9) 0.0239(3) 1
O4 O2- 8 c 0.38120(15) 0.11795(12) 1.28113(8) 0.0241(3) 1
O5 O2- 4 b 0. 0.0477(2) 1.25 0.0519(7) 1
O6 O2- 8 c 0.23707(14) 0.02324(12) 1.39752(9) 0.0237(3) 1
O7 O2- 8 c 0.52637(15) 0.37037(14) 1.48077(9) 0.0323(4) 1
O8 O2- 8 c 0.3687(3) -0.10181(19) 1.17255(16) 0.0740(7) 1
N1 N3- 8 c 0.3605(2) -0.2498(2) 1.35763(13) 0.0409(5) 1
H1 H1+ 8 c 0.3816 -0.3231 1.3276 0.049 1
H2 H1+ 8 c 0.272 -0.222 1.3431 0.049 1
H3 H1+ 8 c 0.0612 -0.0052 1.2828 0.049 1
H4 H1+ 8 c 0.4359 -0.1986 1.3465 0.049 1
H5 H1+ 8 c 0.3636 -0.2534 1.4211 0.049 1
H6 H1+ 8 c 0.4349 -0.0453 1.1843 0.049 1
H7 H1+ 8 c 0.3052 0.037 0.9516 0.049 1
H8 H1+ 8 c 0.3583 -0.1333 1.1042 0.049 1
loop_
_atom_site_aniso_label
_atom_site_aniso_type_symbol
_atom_site_aniso_U_11
_atom_site_aniso_U_22
_atom_site_aniso_U_33
_atom_site_aniso_U_12
_atom_site_aniso_U_13
_atom_site_aniso_U_23
Al1 Al3+ 0.0149(3) 0.0145(3) 0.0125(3) 0. 0. -0.0029(2)
B1 B3+ 0.0199(8) 0.0179(8) 0.0162(8) -0.0037(7) 0.0025(7) -0.0015(6)
B2 B3+ 0.0218(8) 0.0205(8) 0.0174(8) -0.0049(7) 0.0045(7) -0.0024(7)
B3 B3+ 0.0225(12) 0.0195(11) 0.0148(11) 0. 0.0054(9) 0.
O1 O2- 0.0377(8) 0.0339(7) 0.0181(6) -0.0213(6) 0.0105(5) -0.0091(5)
O2 O2- 0.0526(17) 0.196(5) 0.088(3) 0. 0. 0.067(3)
O3 O2- 0.0265(7) 0.0266(6) 0.0186(6) -0.0106(5) 0.0083(5) -0.0053(5)
O4 O2- 0.0307(7) 0.0256(6) 0.0159(5) -0.0111(5) 0.0062(5) -0.0049(4)
O5 O2- 0.0801(19) 0.0282(10) 0.0475(14) 0. -0.0142(14) 0.
O6 O2- 0.0284(6) 0.0233(6) 0.0194(6) -0.0111(5) 0.0061(5) -0.0033(4)
O7 O2- 0.0400(7) 0.0369(7) 0.0200(7) -0.0233(6) 0.0098(5) -0.0102(5)
O8 O2- 0.122(2) 0.0437(10) 0.0564(12) -0.0039(14) -0.0247(15) -0.0127(9)
N1 N3- 0.0385(10) 0.0545(12) 0.0298(9) 0.0058(9) -0.0024(9) -0.0052(8)
#End of TTdata_260309-ICSD