
#(C) 2020 by FIZ Karlsruhe - Leibniz Institute for Information Infrastructure.  All rights reserved.
data_260934-ICSD
_database_code_ICSD 260934
_audit_creation_date 2011-02-01
_chemical_name_common 'Dilead iodide pentaborate'
_chemical_formula_structural 'Pb2 I B5 O9'
_chemical_formula_sum 'B5 I1 O9 Pb2'
_chemical_name_structure_type Ca2B5O9Br
_exptl_crystal_density_diffrn 5.56
_diffrn_ambient_temperature 293.
_citation_title
'Pb2 B5 O9 I: An iodide borate with strong second harmonic generation'
loop_
_citation_id
_citation_journal_full
_citation_year
_citation_journal_volume
_citation_page_first
_citation_page_last
_citation_journal_id_ASTM
primary 'Journal of the American Chemical Society' 2010 132 12788 12789 JACSAT
loop_
_citation_author_citation_id
_citation_author_name
primary 'Huang Yizhi'
primary 'Wu Liming'
primary 'Wu Xin Tao'
primary 'Li Longhua'
primary 'Chen Ling'
primary 'Zhang Yongfan'
_cell_length_a 11.561(4)
_cell_length_b 11.700(4)
_cell_length_c 6.524(2)
_cell_angle_alpha 90.
_cell_angle_beta 90.
_cell_angle_gamma 90.
_cell_volume 882.46
_cell_formula_units_Z 4
_space_group_name_H-M_alt 'P n n 2'
_space_group_IT_number 34
loop_
_space_group_symop_id
_space_group_symop_operation_xyz
1 'x+1/2, -y+1/2, z+1/2'
2 '-x+1/2, y+1/2, z+1/2'
3 '-x, -y, z'
4 'x, y, z'
loop_
_atom_type_symbol
_atom_type_oxidation_number
Pb2+ 2
I1- -1
O2- -2
B3+ 3
loop_
_atom_site_label
_atom_site_type_symbol
_atom_site_symmetry_multiplicity
_atom_site_Wyckoff_symbol
_atom_site_fract_x
_atom_site_fract_y
_atom_site_fract_z
_atom_site_U_iso_or_equiv
_atom_site_occupancy
Pb1 Pb2+ 4 c 0.26792(5) 0.46491(5) 0.21451(11) 0.0131(2) 1
Pb2 Pb2+ 4 c 0.05028(5) 0.73796(5) 0.06079(13) 0.0130(2) 1
I1 I1- 2 b 0. 0.5 0.2609(3) 0.0182(4) 1
I2 I1- 2 a 0. 0. 0.0000(3) 0.0203(4) 1
O1 O2- 4 c 0.5785(9) 0.2081(9) 0.2375(18) 0.007(2) 1
O2 O2- 4 c 0.2857(10) 0.0854(9) 0.053(2) 0.009(2) 1
O3 O2- 4 c 0.2368(9) 0.1186(10) 0.401(2) 0.012(2) 1
O4 O2- 4 c 0.3924(11) 0.2620(10) 0.125(2) 0.011(2) 1
O5 O2- 4 c 0.2308(8) 0.3203(9) 0.4889(18) 0.004(2) 1
O6 O2- 4 c 0.7243(9) 0.0658(10) 0.3037(19) 0.008(2) 1
O7 O2- 4 c 0.1899(10) 0.2646(9) 0.1407(18) 0.004(2) 1
O8 O2- 4 c 0.2238(9) 0.7365(9) 0.308(2) 0.006(2) 1
O9 O2- 4 c 0.0551(9) 0.2188(10) 0.397(2) 0.007(2) 1
B1 B3+ 4 c 0.2677(13) 0.0431(14) 0.245(3) 0.005(4) 1
B2 B3+ 4 c 0.5092(14) 0.2490(13) 0.081(3) 0.006(3) 1
B3 B3+ 4 c 0.7027(13) 0.1775(13) 0.205(3) 0.0038(16) 1
B4 B3+ 4 c 0.2841(13) 0.2120(14) 0.024(3) 0.0038(16) 1
B5 B3+ 4 c 0.1814(14) 0.2284(14) 0.360(3) 0.0038(16) 1
loop_
_atom_site_aniso_label
_atom_site_aniso_type_symbol
_atom_site_aniso_U_11
_atom_site_aniso_U_22
_atom_site_aniso_U_33
_atom_site_aniso_U_12
_atom_site_aniso_U_13
_atom_site_aniso_U_23
Pb1 Pb2+ 0.0133(3) 0.0140(3) 0.0121(4) -0.0026(2) -0.0003(3) 0.0039(2)
Pb2 Pb2+ 0.0162(3) 0.0145(3) 0.0085(3) 0.0001(2) -0.0013(3) 0.0012(3)
I1 I1- 0.0108(7) 0.0099(7) 0.0339(11) 0.0003(5) 0. 0.
I2 I1- 0.0119(7) 0.0131(8) 0.0357(11) 0.0007(5) 0. 0.
#End of TTdata_260934-ICSD