
#(C) 2020 by FIZ Karlsruhe - Leibniz Institute for Information Infrastructure.  All rights reserved.
data_261334-ICSD
_database_code_ICSD 261334
_audit_creation_date 2011-08-01
_chemical_name_common 'Tetrarubidium trigermanium hexaaborate'
_chemical_formula_structural 'Rb4 Ge3 B6 O17'
_chemical_formula_sum 'B6 Ge3 O17 Rb4'
_exptl_crystal_density_diffrn 3.67
_diffrn_ambient_temperature 293.
_citation_title

;
New second-order NLO materials based on polymeric borate clusters and Ge O4
tetrahedra: A combined experimental and theoretical study
;
loop_
_citation_id
_citation_journal_full
_citation_year
_citation_journal_volume
_citation_page_first
_citation_page_last
_citation_journal_id_ASTM
primary 'Inorganic Chemistry' 2011 50 1973 1982 INOCAJ
loop_
_citation_author_citation_id
_citation_author_name
primary 'Zhang Jianhan'
primary 'Hu Chunli'
primary 'Xu Xiang'
primary 'Kong Fang'
primary 'Mao Jianggao'
_cell_length_a 11.845(4)
_cell_length_b 6.9682(19)
_cell_length_c 20.253(7)
_cell_angle_alpha 90.
_cell_angle_beta 103.723(5)
_cell_angle_gamma 90.
_cell_volume 1623.93
_cell_formula_units_Z 4
_space_group_name_H-M_alt 'C 1 c 1'
_space_group_IT_number 9
loop_
_space_group_symop_id
_space_group_symop_operation_xyz
1 'x, -y, z+1/2'
2 'x, y, z'
3 'x+1/2, -y+1/2, z+1/2'
4 'x+1/2, y+1/2, z'
loop_
_atom_type_symbol
_atom_type_oxidation_number
Rb1+ 1
Ge4+ 4
B3+ 3
O2- -2
loop_
_atom_site_label
_atom_site_type_symbol
_atom_site_symmetry_multiplicity
_atom_site_Wyckoff_symbol
_atom_site_fract_x
_atom_site_fract_y
_atom_site_fract_z
_atom_site_U_iso_or_equiv
_atom_site_occupancy
Rb1 Rb1+ 4 a 0.65544(5) 0.07961(7) 0.42125(3) 0.01944(14) 1
Rb2 Rb1+ 4 a 0.60485(5) 0.50479(7) 0.66030(3) 0.02357(14) 1
Rb3 Rb1+ 4 a 0.75008(4) 0.01528(7) 0.10565(3) 0.02129(14) 1
Rb4 Rb1+ 4 a 0.77500(4) 0.50961(7) 0.34417(3) 0.01838(13) 1
Ge1 Ge4+ 4 a 0.51138(4) 0.59345(7) 0.46238(3) 0.00780(12) 1
Ge2 Ge4+ 4 a 0.91357(4) 0.02303(7) 0.30377(3) 0.00762(12) 1
Ge3 Ge4+ 4 a 0.89762(4) 0.47351(6) 0.63443(3) 0.00890(13) 1
B1 B3+ 4 a 0.5140(4) 0.1812(7) 0.7505(3) 0.0095(11) 1
B2 B3+ 4 a 0.9701(5) 0.3430(7) 0.7647(3) 0.0092(11) 1
B3 B3+ 4 a 0.9653(5) 0.4306(7) 0.5222(3) 0.0101(11) 1
B4 B3+ 4 a 0.7577(5) 0.5242(7) 0.5023(3) 0.0096(11) 1
B5 B3+ 4 a 0.6680(5) 0.0557(8) 0.2568(3) 0.0102(12) 1
B6 B3+ 4 a 0.4123(5) 0.2701(8) 0.5067(3) 0.0135(12) 1
O1 O2- 4 a 0.7555(3) 0.4963(5) 0.57215(18) 0.0165(8) 1
O2 O2- 4 a 0.9385(3) 0.2213(4) 0.81274(16) 0.0112(7) 1
O3 O2- 4 a 0.7754(3) 0.1071(4) 0.24840(17) 0.0108(7) 1
O4 O2- 4 a 0.9987(3) 0.3894(5) 0.59624(18) 0.0146(8) 1
O5 O2- 4 a 0.8855(3) 0.3057(4) 0.69442(16) 0.0141(7) 1
O6 O2- 4 a 0.9412(3) 0.6949(5) 0.67558(17) 0.0149(8) 1
O7 O2- 4 a 0.5245(3) 0.3742(4) 0.77941(19) 0.0116(7) 1
O8 O2- 4 a 0.9010(3) 0.1015(5) 0.38103(18) 0.0159(8) 1
O9 O2- 4 a 0.9662(3) 0.4578(4) 0.28499(18) 0.0099(7) 1
O10 O2- 4 a 0.8395(3) 0.3951(4) 0.48577(17) 0.0088(7) 1
O11 O2- 4 a 0.7947(3) 0.7296(4) 0.49672(18) 0.0144(8) 1
O12 O2- 4 a 0.4974(3) 0.1377(4) 0.51485(19) 0.0146(7) 1
O13 O2- 4 a 0.5955(3) 0.2008(4) 0.26435(18) 0.0131(7) 1
O14 O2- 4 a 0.6399(3) 0.1321(5) 0.7551(2) 0.0178(8) 1
O15 O2- 4 a 0.4420(3) 0.4650(4) 0.51136(19) 0.0142(8) 1
O16 O2- 4 a 0.5448(3) 0.8206(4) 0.49559(17) 0.0110(7) 1
O17 O2- 4 a 0.6372(3) 0.4906(5) 0.45292(18) 0.0117(7) 1
loop_
_atom_site_aniso_label
_atom_site_aniso_type_symbol
_atom_site_aniso_U_11
_atom_site_aniso_U_22
_atom_site_aniso_U_33
_atom_site_aniso_U_12
_atom_site_aniso_U_13
_atom_site_aniso_U_23
Rb1 Rb1+ 0.0212(3) 0.0186(2) 0.0193(3) 0.0002(2) 0.0065(2) 0.0031(2)
Rb2 Rb1+ 0.0275(3) 0.0254(3) 0.0207(3) -0.0031(2) 0.0114(3) 0.0003(2)
Rb3 Rb1+ 0.0184(3) 0.0259(3) 0.0186(3) 0.0025(2) 0.0025(2) 0.0030(2)
Rb4 Rb1+ 0.0168(3) 0.0215(3) 0.0178(3) -0.0005(2) 0.0060(2) 0.0027(2)
Ge1 Ge4+ 0.0068(2) 0.0071(2) 0.0099(3) 0.00024(19) 0.0029(2) -0.0010(2)
Ge2 Ge4+ 0.0075(3) 0.0065(2) 0.0093(3) -0.00011(19) 0.0031(2) -0.0002(2)
Ge3 Ge4+ 0.0091(3) 0.0093(2) 0.0087(3) 0.00011(19) 0.0029(2) 0.0001(2)
B1 B3+ 0.008(3) 0.009(2) 0.015(3) 0.000(2) 0.009(2) -0.001(2)
B2 B3+ 0.012(3) 0.007(2) 0.010(3) -0.002(2) 0.004(2) 0.004(2)
B3 B3+ 0.009(3) 0.007(2) 0.014(3) 0.003(2) 0.002(2) -0.001(2)
B4 B3+ 0.010(3) 0.011(2) 0.008(3) -0.003(2) 0.003(2) 0.000(2)
B5 B3+ 0.010(3) 0.012(2) 0.009(3) -0.002(2) 0.003(2) -0.002(2)
B6 B3+ 0.013(3) 0.015(3) 0.011(3) 0.001(2) 0.000(2) -0.001(2)
O1 O2- 0.013(2) 0.031(2) 0.0070(19) 0.0028(14) 0.0056(16) 0.0004(15)
O2 O2- 0.0137(19) 0.0090(16) 0.0138(19) 0.0025(13) 0.0091(15) 0.0017(14)
O3 O2- 0.0080(16) 0.0139(17) 0.0111(18) 0.0008(13) 0.0034(14) 0.0041(14)
O4 O2- 0.0136(19) 0.0195(18) 0.0121(18) 0.0062(14) 0.0057(14) -0.0015(15)
O5 O2- 0.021(2) 0.0138(16) 0.0084(17) -0.0068(14) 0.0052(14) 0.0005(14)
O6 O2- 0.025(2) 0.0076(15) 0.0141(19) 0.0004(13) 0.0088(16) 0.0015(14)
O7 O2- 0.0123(16) 0.0107(15) 0.0149(17) -0.0005(14) 0.0093(14) -0.0024(15)
O8 O2- 0.0140(19) 0.0225(18) 0.0103(18) 0.0031(15) 0.0009(15) -0.0037(15)
O9 O2- 0.0146(18) 0.0081(15) 0.0097(18) -0.0007(13) 0.0081(15) 0.0004(14)
O10 O2- 0.0110(16) 0.0078(15) 0.0083(17) -0.0009(13) 0.0038(13) -0.0004(13)
O11 O2- 0.0100(17) 0.0071(15) 0.029(2) -0.0007(13) 0.0100(15) -0.0008(15)
O12 O2- 0.0133(17) 0.0064(15) 0.026(2) -0.0008(14) 0.0087(16) -0.0008(15)
O13 O2- 0.0132(18) 0.0084(16) 0.020(2) -0.0021(14) 0.0091(15) -0.0022(15)
O14 O2- 0.0139(19) 0.0108(16) 0.033(2) -0.0024(14) 0.0133(16) -0.0024(17)
O15 O2- 0.020(2) 0.0083(15) 0.018(2) -0.0022(14) 0.0112(17) 0.0016(14)
O16 O2- 0.0091(16) 0.0084(15) 0.0181(18) 0.0003(13) 0.0084(14) -0.0035(14)
O17 O2- 0.0079(18) 0.0146(16) 0.013(2) 0.0022(12) 0.0041(15) -0.0010(14)
#End of TTdata_261334-ICSD