
#(C) 2020 by FIZ Karlsruhe - Leibniz Institute for Information Infrastructure.  All rights reserved.
data_261332-ICSD
_database_code_ICSD 261332
_audit_creation_date 2011-08-01
_chemical_name_common 'Rubidium germanium triborate'
_chemical_formula_structural 'Rb Ge B3 O7'
_chemical_formula_sum 'B3 Ge1 O7 Rb1'
_chemical_name_structure_type CsB3GeO7
_exptl_crystal_density_diffrn 3.26
_diffrn_ambient_temperature 293.
_citation_title

;
New second-order NLO materials based on polymeric borate clusters and Ge O4
tetrahedra: A combined experimental and theoretical study
;
loop_
_citation_id
_citation_journal_full
_citation_year
_citation_journal_volume
_citation_page_first
_citation_page_last
_citation_journal_id_ASTM
primary 'Inorganic Chemistry' 2011 50 1973 1982 INOCAJ
loop_
_citation_author_citation_id
_citation_author_name
primary 'Zhang Jianhan'
primary 'Hu Chunli'
primary 'Xu Xiang'
primary 'Kong Fang'
primary 'Mao Jianggao'
_cell_length_a 9.352(5)
_cell_length_b 9.457(5)
_cell_length_c 6.962(4)
_cell_angle_alpha 90.
_cell_angle_beta 90.
_cell_angle_gamma 90.
_cell_volume 615.73
_cell_formula_units_Z 4
_space_group_name_H-M_alt 'P n a 21'
_space_group_IT_number 33
loop_
_space_group_symop_id
_space_group_symop_operation_xyz
1 'x+1/2, -y+1/2, z'
2 '-x+1/2, y+1/2, z+1/2'
3 '-x, -y, z+1/2'
4 'x, y, z'
loop_
_atom_type_symbol
_atom_type_oxidation_number
Rb1+ 1
Ge4+ 4
B3+ 3
O2- -2
loop_
_atom_site_label
_atom_site_type_symbol
_atom_site_symmetry_multiplicity
_atom_site_Wyckoff_symbol
_atom_site_fract_x
_atom_site_fract_y
_atom_site_fract_z
_atom_site_U_iso_or_equiv
_atom_site_occupancy
Rb1 Rb1+ 4 a 0.01423(5) 0.32566(4) 0.75404(9) 0.02082(13) 1
Ge1 Ge4+ 4 a 0.25675(4) 0.40015(4) 0.27024(9) 0.00847(11) 1
B1 B3+ 4 a 0.0241(5) 0.2233(5) 0.3071(7) 0.0089(11) 1
B2 B3+ 4 a 0.3217(7) 0.5194(6) 0.8969(9) 0.0134(12) 1
B3 B3+ 4 a 0.3490(6) 0.5755(6) 0.5649(8) 0.0114(11) 1
O1 O2- 4 a 0.4378(4) 0.6809(3) 0.6079(5) 0.0121(8) 1
O2 O2- 4 a 0.2966(3) 0.4849(3) 0.7045(5) 0.0144(8) 1
O3 O2- 4 a 0.0842(4) 0.1198(4) 0.4465(5) 0.0111(7) 1
O4 O2- 4 a 0.2484(3) 0.4351(3) 0.0225(4) 0.0153(8) 1
O5 O2- 4 a 0.3077(4) 0.5604(3) 0.3773(5) 0.0144(7) 1
O6 O2- 4 a 0.0838(3) 0.3651(3) 0.3448(4) 0.0120(7) 1
O7 O2- 4 a 0.3704(3) 0.2637(3) 0.3291(4) 0.0125(7) 1
loop_
_atom_site_aniso_label
_atom_site_aniso_type_symbol
_atom_site_aniso_U_11
_atom_site_aniso_U_22
_atom_site_aniso_U_33
_atom_site_aniso_U_12
_atom_site_aniso_U_13
_atom_site_aniso_U_23
Rb1 Rb1+ 0.0275(2) 0.0214(2) 0.0135(2) 0.00418(17) 0.0009(3) 0.0009(3)
Ge1 Ge4+ 0.0102(2) 0.00878(19) 0.00644(19) -0.00139(15) -0.0003(3) -0.0001(3)
B1 B3+ 0.011(2) 0.010(2) 0.006(3) -0.0014(18) -0.0010(19) -0.0013(19)
B2 B3+ 0.019(3) 0.015(3) 0.005(3) 0.003(2) 0.001(2) 0.002(2)
B3 B3+ 0.011(3) 0.011(3) 0.012(3) 0.004(2) 0.004(2) 0.004(2)
O1 O2- 0.0154(18) 0.0149(19) 0.0062(17) -0.0062(14) -0.0015(14) 0.0000(15)
O2 O2- 0.0203(17) 0.0126(17) 0.010(2) -0.0068(14) -0.0034(14) 0.0003(13)
O3 O2- 0.0132(18) 0.0147(18) 0.0055(16) 0.0039(14) 0.0020(15) 0.0008(15)
O4 O2- 0.021(2) 0.0202(19) 0.0050(16) -0.0100(15) -0.0004(14) 0.0029(14)
O5 O2- 0.0210(19) 0.0127(16) 0.0095(17) -0.0057(14) -0.0023(14) -0.0019(13)
O6 O2- 0.0127(17) 0.0087(15) 0.0145(16) -0.0008(13) 0.0019(13) -0.0023(13)
O7 O2- 0.0108(16) 0.0097(14) 0.0169(16) -0.0001(13) -0.0014(12) 0.0013(13)
#End of TTdata_261332-ICSD