
#(C) 2020 by FIZ Karlsruhe - Leibniz Institute for Information Infrastructure.  All rights reserved.
data_261333-ICSD
_database_code_ICSD 261333
_audit_creation_date 2011-08-01
_chemical_name_common 'Dirubidium germanium tetraborate'
_chemical_formula_structural 'Rb2 Ge B4 O9'
_chemical_formula_sum 'B4 Ge1 O9 Rb2'
_exptl_crystal_density_diffrn 3.29
_diffrn_ambient_temperature 293.
_citation_title

;
New second-order NLO materials based on polymeric borate clusters and Ge O4
tetrahedra: A combined experimental and theoretical study
;
loop_
_citation_id
_citation_journal_full
_citation_year
_citation_journal_volume
_citation_page_first
_citation_page_last
_citation_journal_id_ASTM
primary 'Inorganic Chemistry' 2011 50 1973 1982 INOCAJ
loop_
_citation_author_citation_id
_citation_author_name
primary 'Zhang Jianhan'
primary 'Hu Chunli'
primary 'Xu Xiang'
primary 'Kong Fang'
primary 'Mao Jianggao'
_cell_length_a 6.611(4)
_cell_length_b 9.950(5)
_cell_length_c 13.216(7)
_cell_angle_alpha 90.
_cell_angle_beta 90.380(7)
_cell_angle_gamma 90.
_cell_volume 869.32
_cell_formula_units_Z 4
_space_group_name_H-M_alt 'P 1 21 1'
_space_group_IT_number 4
loop_
_space_group_symop_id
_space_group_symop_operation_xyz
1 '-x, y+1/2, -z'
2 'x, y, z'
loop_
_atom_type_symbol
_atom_type_oxidation_number
Rb1+ 1
Ge4+ 4
B3+ 3
O2- -2
loop_
_atom_site_label
_atom_site_type_symbol
_atom_site_symmetry_multiplicity
_atom_site_Wyckoff_symbol
_atom_site_fract_x
_atom_site_fract_y
_atom_site_fract_z
_atom_site_U_iso_or_equiv
_atom_site_occupancy
Rb1 Rb1+ 2 a 0.22243(16) 0.8759(3) 0.88242(9) 0.0252(3) 1
Rb2 Rb1+ 2 a 0.7460(2) 0.15788(19) 0.88086(11) 0.0395(4) 1
Rb3 Rb1+ 2 a 0.23092(19) 0.65371(16) 0.63481(9) 0.0307(3) 1
Rb4 Rb1+ 2 a 0.29006(15) 0.9312(3) 0.37393(9) 0.0233(3) 1
Ge1 Ge4+ 2 a 0.74384(15) 0.64901(14) 0.87023(8) 0.0089(3) 1
Ge2 Ge4+ 2 a 0.24496(16) 0.15836(14) 0.61767(8) 0.0096(3) 1
B1 B3+ 2 a 0.4036(15) 0.4853(12) 0.8381(8) 0.012(2) 1
B2 B3+ 2 a 0.6608(16) 0.8227(13) 0.5451(9) 0.016(3) 1
B3 B3+ 2 a 0.0698(16) 0.4822(11) 0.9076(9) 0.012(2) 1
B4 B3+ 2 a 0.8075(16) 0.8229(12) 0.7088(9) 0.015(3) 1
B5 B3+ 2 a 0.5088(15) 0.9599(13) 0.6734(8) 0.015(3) 1
B6 B3+ 2 a 0.3341(15) 0.3407(11) 0.9850(9) 0.012(2) 1
B7 B3+ 2 a 0.0437(16) 0.4601(13) 0.4232(9) 0.014(3) 1
B8 B3+ 2 a 0.1395(17) 0.3485(12) 0.7560(9) 0.016(3) 1
O1 O2- 2 a 0.0726(9) 0.2517(7) 0.6885(5) 0.0168(16) 1
O2 O2- 2 a 0.5943(9) 0.7447(6) 0.9526(5) 0.0153(16) 1
O3 O2- 2 a 0.4148(9) 0.2433(6) 0.5419(5) 0.0117(15) 1
O4 O2- 2 a 0.0858(9) 0.0618(6) 0.5408(5) 0.0122(15) 1
O5 O2- 2 a 0.9039(9) 0.5585(6) 0.9494(5) 0.0134(15) 1
O6 O2- 2 a 0.3857(9) 0.0635(7) 0.7055(5) 0.0158(16) 1
O7 O2- 2 a 0.8921(9) 0.7428(6) 0.7896(5) 0.0129(15) 1
O8 O2- 2 a 0.5679(8) 0.5603(6) 0.7977(5) 0.0101(14) 1
O9 O2- 2 a 0.2363(10) 0.5649(8) 0.8732(5) 0.0148(18) 1
O10 O2- 2 a 0.7345(10) 0.7414(8) 0.6240(5) 0.0174(18) 1
O11 O2- 2 a 0.4892(10) 0.9089(8) 0.5803(6) 0.021(2) 1
O12 O2- 2 a 0.9750(10) 0.9141(8) 0.6724(5) 0.019(2) 1
O13 O2- 2 a 0.8179(10) 0.9163(8) 0.5077(5) 0.018(2) 1
O14 O2- 2 a 0.3346(9) 0.3941(7) 0.7545(5) 0.0105(16) 1
O15 O2- 2 a 0.9934(10) 0.3978(8) 0.8199(5) 0.020(2) 1
O16 O2- 2 a 0.6408(9) 0.9125(8) 0.7445(5) 0.0166(19) 1
O17 O2- 2 a 0.4772(9) 0.3967(8) 0.9225(5) 0.0155(19) 1
O18 O2- 2 a 0.1426(10) 0.3854(9) 0.9867(6) 0.025(2) 1
loop_
_atom_site_aniso_label
_atom_site_aniso_type_symbol
_atom_site_aniso_U_11
_atom_site_aniso_U_22
_atom_site_aniso_U_33
_atom_site_aniso_U_12
_atom_site_aniso_U_13
_atom_site_aniso_U_23
Rb1 Rb1+ 0.0143(5) 0.0365(8) 0.0248(7) 0.0001(5) -0.0010(5) -0.0024(6)
Rb2 Rb1+ 0.0398(8) 0.0285(9) 0.0502(10) -0.0022(8) 0.0050(7) -0.0041(9)
Rb3 Rb1+ 0.0375(7) 0.0217(8) 0.0330(7) 0.0008(8) -0.0036(6) 0.0016(8)
Rb4 Rb1+ 0.0193(6) 0.0323(8) 0.0181(6) 0.0036(5) -0.0017(4) 0.0007(6)
Ge1 Ge4+ 0.0052(5) 0.0122(7) 0.0093(5) 0.0011(5) -0.0025(4) 0.0014(6)
Ge2 Ge4+ 0.0080(5) 0.0108(7) 0.0099(6) -0.0001(6) -0.0024(4) -0.0019(6)
B1 B3+ 0.009(5) 0.020(6) 0.006(6) -0.005(5) -0.003(4) 0.000(5)
B2 B3+ 0.007(5) 0.028(7) 0.013(6) -0.003(5) 0.003(5) 0.002(6)
B3 B3+ 0.016(5) 0.011(6) 0.010(6) -0.001(5) 0.002(4) -0.004(5)
B4 B3+ 0.009(5) 0.020(7) 0.017(7) 0.003(5) -0.001(5) 0.000(5)
B5 B3+ 0.015(5) 0.025(7) 0.004(5) 0.009(5) -0.003(4) -0.002(5)
B6 B3+ 0.008(5) 0.012(6) 0.015(6) 0.004(4) 0.001(4) 0.005(5)
B7 B3+ 0.015(5) 0.018(7) 0.010(6) -0.003(5) 0.002(4) -0.006(5)
B8 B3+ 0.020(6) 0.016(7) 0.012(6) 0.003(5) -0.006(5) -0.001(5)
O1 O2- 0.006(3) 0.019(4) 0.025(4) 0.001(3) -0.004(3) -0.004(4)
O2 O2- 0.013(3) 0.010(4) 0.022(4) 0.001(3) -0.004(3) -0.001(3)
O3 O2- 0.015(3) 0.011(4) 0.009(4) -0.003(3) -0.003(3) -0.001(3)
O4 O2- 0.011(3) 0.012(4) 0.013(4) -0.008(3) -0.005(3) 0.001(3)
O6 O2- 0.019(4) 0.016(4) 0.012(4) 0.003(3) -0.003(3) 0.000(3)
O7 O2- 0.009(3) 0.014(4) 0.015(4) -0.002(3) -0.007(3) 0.009(3)
O8 O2- 0.007(3) 0.014(4) 0.010(4) -0.003(3) -0.002(3) 0.004(3)
O9 O2- 0.017(4) 0.015(5) 0.012(4) -0.002(3) -0.006(3) 0.001(3)
O10 O2- 0.017(4) 0.014(5) 0.022(4) -0.001(3) -0.006(3) -0.003(3)
O11 O2- 0.019(4) 0.021(6) 0.022(5) 0.010(3) -0.001(3) -0.005(4)
O12 O2- 0.019(4) 0.022(5) 0.015(4) -0.013(3) -0.008(3) 0.011(4)
O13 O2- 0.017(3) 0.024(5) 0.015(4) -0.010(3) -0.009(3) 0.008(3)
O15 O2- 0.009(3) 0.033(6) 0.019(4) -0.004(3) -0.001(3) -0.015(4)
O16 O2- 0.015(3) 0.015(5) 0.019(4) 0.010(3) -0.005(3) -0.007(3)
O17 O2- 0.007(3) 0.014(5) 0.025(4) 0.007(3) 0.003(3) 0.010(4)
O18 O2- 0.012(3) 0.033(5) 0.029(5) -0.001(4) -0.001(3) 0.006(4)
#End of TTdata_261333-ICSD