
#(C) 2020 by FIZ Karlsruhe - Leibniz Institute for Information Infrastructure.  All rights reserved.
data_261971-ICSD
_database_code_ICSD 261971
_audit_creation_date 2012-02-01
_chemical_name_common 'Dodecacadmium octaboro heptadecagermanate'
_chemical_formula_structural 'Cd12 B8 Ge17 O58'
_chemical_formula_sum 'B8 Cd12 Ge17 O58'
_exptl_crystal_density_diffrn 5.71
_diffrn_ambient_temperature 293.
_citation_title

;
Ca10 Ge16 B6 O51 and Cd12 Ge17 B8 O58: two types of new 3D frameworks based on
B O4 tetrahedra and 1D [Ge4 O12]n chains
;
loop_
_citation_id
_citation_journal_full
_citation_year
_citation_journal_volume
_citation_page_first
_citation_page_last
_citation_journal_id_ASTM
primary 'Inorganic Chemistry' 2011 50 8861 8868 INOCAJ
loop_
_citation_author_citation_id
_citation_author_name
primary 'Xu Xiang'
primary 'Hu Chunli'
primary 'Kong Fan'
primary 'Zhang Jianhan'
primary 'Mao Jianggao'
_cell_length_a 14.928(2)
_cell_length_b 14.928(2)
_cell_length_c 4.6975(10)
_cell_angle_alpha 90.
_cell_angle_beta 90.
_cell_angle_gamma 90.
_cell_volume 1046.82
_cell_formula_units_Z 1
_space_group_name_H-M_alt 'P -4'
_space_group_IT_number 81
loop_
_space_group_symop_id
_space_group_symop_operation_xyz
1 '-y, x, -z'
2 'y, -x, -z'
3 '-x, -y, z'
4 'x, y, z'
loop_
_atom_type_symbol
_atom_type_oxidation_number
Cd2+ 2
Ge4+ 4
B3+ 3
O2- -2
loop_
_atom_site_label
_atom_site_type_symbol
_atom_site_symmetry_multiplicity
_atom_site_Wyckoff_symbol
_atom_site_fract_x
_atom_site_fract_y
_atom_site_fract_z
_atom_site_U_iso_or_equiv
_atom_site_occupancy
Cd1 Cd2+ 4 h 0.106372(15) 0.146265(15) 0.51025(12) 0.00770(6) 1
Cd2 Cd2+ 4 h 0.246112(15) 0.361671(15) 1.50277(13) 0.00829(6) 1
Cd3 Cd2+ 4 h -0.010808(16) 0.325315(17) 0.51616(12) 0.00945(7) 1
Ge1 Ge4+ 1 a 0. 0. 1. 0.00699(14) 1
Ge2 Ge4+ 4 h 0.10450(2) 0.48642(2) 1.00012(17) 0.00518(8) 1
Ge3 Ge4+ 4 h 0.19197(2) 0.71730(2) 0.99908(18) 0.00538(8) 1
Ge4 Ge4+ 4 h 0.35527(2) 0.53757(2) 1.00727(18) 0.00524(8) 1
Ge5 Ge4+ 4 h 0.21675(2) 0.57771(2) 1.50193(19) 0.00466(8) 1
B1 B3+ 4 h 0.1180(2) 0.2926(3) 1.0264(15) 0.0048(9) 1
B2 B3+ 4 h 0.0276(3) -0.1849(3) 1.0374(13) 0.0064(10) 1
O1 O2- 4 h 0.04952(18) 0.23446(18) 0.1526(7) 0.0104(7) 1
O2 O2- 4 h 0.17839(19) 0.03415(18) 0.2575(6) 0.0093(6) 1
O3 O2- 4 h 0.28135(18) 0.49689(18) 1.2735(7) 0.0079(6) 1
O4 O2- 4 h 0.14316(17) 0.65094(18) 0.7335(6) 0.0066(6) 1
O5 O2- 4 h 0.18615(18) 0.48073(17) 0.7303(6) 0.0071(6) 1
O6 O2- 4 h 0.25695(18) 0.67118(17) 1.2729(6) 0.0067(6) 1
O7 O2- 4 h 0.10745(18) 0.77331(18) 1.1849(7) 0.0096(7) 1
O8 O2- 2 g 0. 0.5 0.8233(10) 0.0114(9) 1
O9 O2- 4 h 0.10238(19) 0.38284(18) 1.1705(7) 0.0102(6) 1
O10 O2- 4 h 0.02132(18) -0.09484(17) 1.2017(7) 0.0075(6) 1
O11 O2- 4 h 0.12129(18) 0.29404(18) 0.7259(6) 0.0071(6) 1
O12 O2- 4 h 0.39880(18) 0.44164(18) 0.8378(7) 0.0095(6) 1
O13 O2- 4 h 0.31279(18) 0.60598(18) 0.7366(6) 0.0076(6) 1
O14 O2- 4 h 0.26269(19) 0.79485(19) 0.8346(7) 0.0110(6) 1
O15 O2- 4 h 0.11321(18) 0.56742(18) 1.2703(6) 0.0070(6) 1
loop_
_atom_site_aniso_label
_atom_site_aniso_type_symbol
_atom_site_aniso_U_11
_atom_site_aniso_U_22
_atom_site_aniso_U_33
_atom_site_aniso_U_12
_atom_site_aniso_U_13
_atom_site_aniso_U_23
Cd1 Cd2+ 0.00827(11) 0.00686(11) 0.00797(15) 0.00172(9) -0.0013(3) 0.0007(2)
Cd2 Cd2+ 0.00986(12) 0.00531(11) 0.00971(14) 0.00129(8) 0.0002(3) -0.0001(2)
Cd3 Cd2+ 0.00667(12) 0.01160(12) 0.01009(16) 0.00231(9) 0.0013(2) -0.0002(2)
Ge1 Ge4+ 0.00617(19) 0.00617(19) 0.0086(4) 0. 0. 0.
Ge2 Ge4+ 0.00548(15) 0.00459(15) 0.00547(19) -0.00032(12) 0.0001(4) 0.0002(4)
Ge3 Ge4+ 0.00605(16) 0.00475(15) 0.00535(18) 0.00027(11) -0.0006(4) 0.0002(4)
Ge4 Ge4+ 0.00441(15) 0.00492(15) 0.00638(19) 0.00000(12) -0.0004(3) 0.0009(4)
Ge5 Ge4+ 0.00469(15) 0.00412(15) 0.00518(17) -0.00007(12) 0.0004(3) -0.0001(3)
B1 B3+ 0.0050(16) 0.0049(16) 0.004(2) 0.0008(13) 0.000(2) 0.001(3)
B2 B3+ 0.0016(17) 0.0097(18) 0.008(3) 0.0008(13) -0.002(2) 0.000(2)
O1 O2- 0.0110(15) 0.0135(15) 0.0068(16) -0.0078(12) -0.0030(13) 0.0006(13)
O2 O2- 0.0090(14) 0.0082(14) 0.0107(18) 0.0027(12) 0.0005(13) -0.0033(13)
O3 O2- 0.0088(14) 0.0057(14) 0.0093(17) 0.0008(11) 0.0021(13) -0.0007(13)
O4 O2- 0.0074(14) 0.0072(14) 0.0054(16) 0.0020(11) -0.0009(12) -0.0025(12)
O5 O2- 0.0067(13) 0.0048(13) 0.0097(17) 0.0007(11) 0.0027(13) 0.0012(12)
O6 O2- 0.0049(13) 0.0069(13) 0.0082(16) -0.0012(10) -0.0013(12) -0.0002(12)
O7 O2- 0.0087(14) 0.0108(15) 0.0092(17) 0.0054(12) -0.0024(13) -0.0059(13)
O8 O2- 0.004(2) 0.024(2) 0.006(2) 0.0000(17) 0. 0.
O9 O2- 0.0166(16) 0.0036(14) 0.0103(17) 0.0003(12) 0.0056(13) 0.0014(12)
O10 O2- 0.0083(14) 0.0039(14) 0.0103(17) 0.0002(11) -0.0004(12) 0.0011(12)
O11 O2- 0.0069(14) 0.0072(14) 0.0074(16) -0.0030(11) -0.0018(12) -0.0004(13)
O12 O2- 0.0113(14) 0.0057(14) 0.0116(17) 0.0025(11) 0.0003(13) 0.0007(13)
O13 O2- 0.0055(13) 0.0085(14) 0.0089(17) -0.0008(12) -0.0035(12) 0.0011(12)
O14 O2- 0.0173(16) 0.0069(14) 0.0088(16) -0.0037(12) 0.0051(14) -0.0018(13)
O15 O2- 0.0070(14) 0.0062(14) 0.0079(16) -0.0015(11) -0.0007(12) -0.0019(12)
#End of TTdata_261971-ICSD