
#(C) 2020 by FIZ Karlsruhe - Leibniz Institute for Information Infrastructure.  All rights reserved.
data_26203-ICSD
_database_code_ICSD 26203
_audit_creation_date 1980-01-01
_audit_update_record 1987-11-03
_chemical_name_common 'Barium borate *'
_chemical_formula_structural 'Ba B8 O13'
_chemical_formula_sum 'B8 Ba1 O13'
_exptl_crystal_density_diffrn 2.97
_citation_title 'On the crystal structure of barium tetraborate, Ba O (B2 O3)4'
loop_
_citation_id
_citation_journal_full
_citation_year
_citation_journal_volume
_citation_page_first
_citation_page_last
_citation_journal_id_ASTM
primary

;
Acta Crystallographica, Section B: Structural Crystallography and Crystal
Chemistry
; 1969 25 2153 2154 ACBCAR
loop_
_citation_author_citation_id
_citation_author_name
primary 'Krogh-Moe, J.'
primary 'Ihara, M.'
_cell_length_a 8.56
_cell_length_b 8.56
_cell_length_c 13.2
_cell_angle_alpha 90.
_cell_angle_beta 90.
_cell_angle_gamma 90.
_cell_volume 967.21
_cell_formula_units_Z 4
_space_group_name_H-M_alt 'P 41 2 2'
_space_group_IT_number 91
loop_
_space_group_symop_id
_space_group_symop_operation_xyz
1 'y, x, -z+3/4'
2 '-y, -x, -z+1/4'
3 'x, -y, -z+1/2'
4 '-x, y, -z'
5 'y, -x, z+3/4'
6 '-y, x, z+1/4'
7 '-x, -y, z+1/2'
8 'x, y, z'
loop_
_atom_type_symbol
_atom_type_oxidation_number
Ba2+ 2
O2- -2
B3+ 3
loop_
_atom_site_label
_atom_site_type_symbol
_atom_site_symmetry_multiplicity
_atom_site_Wyckoff_symbol
_atom_site_fract_x
_atom_site_fract_y
_atom_site_fract_z
_atom_site_B_iso_or_equiv
_atom_site_occupancy
Ba1 Ba2+ 4 a 0 0.4718 0 1.8 1.
O1 O2- 4 c 0.45 0.55 0.125 0.9 1.
O2 O2- 8 d 0.278 0.37 0.159 1. 1.
O3 O2- 8 d 0.763 0.212 0.219 1.2 1.
O4 O2- 8 d 0.529 0.261 0.136 1.3 1.
O5 O2- 8 d 0.237 0.169 0.292 1.5 1.
O6 O2- 8 d 0.965 0.189 0.345 4.4 1.
O7 O2- 8 d 0.011 0.284 0.192 2.6 1.
B1 B3+ 4 c 0.68 0.32 0.125 0.5 1.
B2 B3+ 4 c 0.12 0.12 0.375 5.4 1.
B3 B3+ 8 d 0.412 0.368 0.142 0.8 1.
B4 B3+ 8 d 0.185 0.272 0.219 3.1 1.
B5 B3+ 8 d 0.927 0.238 0.25 3.9 1.
#End of TTdata_26203-ICSD