
#(C) 2020 by FIZ Karlsruhe - Leibniz Institute for Information Infrastructure.  All rights reserved.
data_262005-ICSD
_database_code_ICSD 262005
_audit_creation_date 2012-02-01
_chemical_name_common 'Tripotassium hexaborate chloride'
_chemical_formula_structural 'K3 (B6 O10) Cl'
_chemical_formula_sum 'B6 Cl1 K3 O10'
_chemical_name_structure_type K3B6O10Br
_exptl_crystal_density_diffrn 2.43
_diffrn_ambient_temperature 293.
_citation_title

;
K3 B6 O10 Cl: A new structure analogous to perovskite with a large second
harmonic generation response and deep UV absorption edge
;
loop_
_citation_id
_citation_journal_full
_citation_year
_citation_journal_volume
_citation_page_first
_citation_page_last
_citation_journal_id_ASTM
primary 'Journal of the American Chemical Society' 2011 133 7786 7790 JACSAT
loop_
_citation_author_citation_id
_citation_author_name
primary 'Wu Hongping'
primary 'Pan Shilie'
primary 'Poeppelmeier, K.R.'
primary 'Li Hongyi'
primary 'Jia Dianzeng'
primary 'Chen Zhaohui'
primary 'Fan Xiaojun'
primary 'Yang Yun'
primary 'Rondinelli, J.M.'
primary 'Luo Haosu'
_cell_length_a 10.0624(14)
_cell_length_b 10.0624(14)
_cell_length_c 8.8361(18)
_cell_angle_alpha 90.
_cell_angle_beta 90.
_cell_angle_gamma 120.
_cell_volume 774.81
_cell_formula_units_Z 3
_space_group_name_H-M_alt 'R 3 m H'
_space_group_IT_number 160
loop_
_space_group_symop_id
_space_group_symop_operation_xyz
1 '-x+y, y, z'
2 'x, x-y, z'
3 '-y, -x, z'
4 '-x+y, -x, z'
5 '-y, x-y, z'
6 'x, y, z'
7 '-x+y+2/3, y+1/3, z+1/3'
8 'x+2/3, x-y+1/3, z+1/3'
9 '-y+2/3, -x+1/3, z+1/3'
10 '-x+y+2/3, -x+1/3, z+1/3'
11 '-y+2/3, x-y+1/3, z+1/3'
12 'x+2/3, y+1/3, z+1/3'
13 '-x+y+1/3, y+2/3, z+2/3'
14 'x+1/3, x-y+2/3, z+2/3'
15 '-y+1/3, -x+2/3, z+2/3'
16 '-x+y+1/3, -x+2/3, z+2/3'
17 '-y+1/3, x-y+2/3, z+2/3'
18 'x+1/3, y+2/3, z+2/3'
loop_
_atom_type_symbol
_atom_type_oxidation_number
K1+ 1
Cl1- -1
B3+ 3
O2- -2
loop_
_atom_site_label
_atom_site_type_symbol
_atom_site_symmetry_multiplicity
_atom_site_Wyckoff_symbol
_atom_site_fract_x
_atom_site_fract_y
_atom_site_fract_z
_atom_site_U_iso_or_equiv
_atom_site_occupancy
K1 K1+ 9 b -0.17954(2) 0.17954(2) 0.56270(2) 0.00964(12) 1
Cl1 Cl1- 3 a 0. 0. 0.44054(10) 0.01367(18) 1
B1 B3+ 9 b -0.08739(11) 0.08739(11) 0.8987(2) 0.0043(4) 1
B2 B3+ 9 b 0.15075(11) 0.3015(2) 0.7840(2) 0.0049(4) 1
O1 O2- 18 c -0.00079(10) 0.23426(10) 0.82039(10) 0.0058(2) 1
O2 O2- 9 b 0.22323(7) 0.44647(14) 0.72298(14) 0.0061(3) 1
O3 O2- 3 a 0. 0. 0.8896(3) 0.0029(5) 1
loop_
_atom_site_aniso_label
_atom_site_aniso_type_symbol
_atom_site_aniso_U_11
_atom_site_aniso_U_22
_atom_site_aniso_U_33
_atom_site_aniso_U_12
_atom_site_aniso_U_13
_atom_site_aniso_U_23
K1 K1+ 0.00770(17) 0.00770(17) 0.01002(19) 0.00124(19) -0.00206(10) 0.00206(10)
Cl1 Cl1- 0.0126(2) 0.0126(2) 0.0158(4) 0.00629(12) 0. 0.
B1 B3+ 0.0044(6) 0.0044(6) 0.0052(8) 0.0030(7) 0.0004(3) -0.0004(3)
B2 B3+ 0.0064(7) 0.0051(10) 0.0029(7) 0.0025(5) -0.0005(4) -0.0010(7)
O1 O2- 0.0054(4) 0.0047(4) 0.0077(4) 0.0027(4) 0.0008(3) 0.0016(3)
O2 O2- 0.0072(4) 0.0047(6) 0.0056(6) 0.0024(3) 0.0006(2) 0.0013(5)
O3 O2- 0.0024(7) 0.0024(7) 0.0041(9) 0.0012(4) 0. 0.
#End of TTdata_262005-ICSD