
#(C) 2020 by FIZ Karlsruhe - Leibniz Institute for Information Infrastructure.  All rights reserved.
data_262542-ICSD
_database_code_ICSD 262542
_audit_creation_date 2012-08-01
_chemical_name_common 'Tribarium dihydroxo hexaborate'
_chemical_formula_structural 'Ba3 B6 O11 (O H)2'
_chemical_formula_sum 'H2 B6 Ba3 O13'
_exptl_crystal_density_diffrn 4.11
_diffrn_ambient_temperature 298.
_citation_title

;
Hydrothermal synthesis and crystal structure of two new hydrated alkaline
earth metal borates Sr3 B6 O11 (O H)2 and Ba3 B6 O11 (O H)2
;
loop_
_citation_id
_citation_journal_full
_citation_year
_citation_journal_volume
_citation_page_first
_citation_page_last
_citation_journal_id_ASTM
primary 'Inorganic Chemistry' 2012 51 3956 3962 INOCAJ
loop_
_citation_author_citation_id
_citation_author_name
primary 'Heyward, C.'
primary 'McMillen, C.'
primary 'Kolis, J.'
_cell_length_a 6.9580(14)
_cell_length_b 7.0240(14)
_cell_length_c 11.346(2)
_cell_angle_alpha 90.
_cell_angle_beta 90.10(3)
_cell_angle_gamma 90.
_cell_volume 554.51
_cell_formula_units_Z 2
_space_group_name_H-M_alt 'P 1 c 1'
_space_group_IT_number 7
loop_
_space_group_symop_id
_space_group_symop_operation_xyz
1 'x, -y, z+1/2'
2 'x, y, z'
loop_
_atom_type_symbol
_atom_type_oxidation_number
Ba2+ 2
O2- -2
H1+ 1
O2- -2
H1+ 1
B3+ 3
O2- -2
B3+ 3
loop_
_atom_site_label
_atom_site_type_symbol
_atom_site_symmetry_multiplicity
_atom_site_Wyckoff_symbol
_atom_site_fract_x
_atom_site_fract_y
_atom_site_fract_z
_atom_site_U_iso_or_equiv
_atom_site_occupancy
Ba1 Ba2+ 2 a 0.26170(5) 0.76645(7) 0.99318(4) 0.01041(14) 1
Ba2 Ba2+ 2 a 0.63723(9) 0.85624(6) 0.70287(6) 0.01298(15) 1
Ba3 Ba2+ 2 a -0.06196(5) 1.24996(7) 0.87774(4) 0.01024(14) 1
O1 O2- 2 a -0.0788(9) 1.5806(9) 1.0149(6) 0.0084(13) 1
O2 O2- 2 a -0.2230(7) 1.4793(8) 0.7039(5) 0.0086(11) 1
O3 O2- 2 a 0.1131(9) 1.4159(7) 0.6913(6) 0.0096(11) 1
O4 O2- 2 a 0.3383(9) 0.4385(9) 0.8522(6) 0.0121(13) 1
O5 O2- 2 a 0.2626(9) 0.7169(9) 0.7434(6) 0.0098(13) 1
O6 O2- 2 a 0.6547(9) 0.7722(9) 1.0730(7) 0.0122(14) 1
O7 O2- 2 a 0.4458(7) 0.5303(8) 1.1495(5) 0.0075(11) 1
O8 O2- 2 a -0.4195(8) 1.2218(8) 0.7737(6) 0.0105(13) 1
O9 O2- 2 a 0.9861(9) 0.7112(9) 0.6167(6) 0.0089(12) 1
O10 O2- 2 a 0.3098(9) 1.0899(10) 0.8708(6) 0.0155(14) 1
H1 H1+ 2 a 0.3168 1.0454 0.793 0.05 1
O11 O2- 2 a 0.5454(9) 0.7359(8) 0.4827(6) 0.0117(13) 1
H2 H1+ 2 a 0.5382 0.6046 0.4975 0.05 1
B1 B3+ 2 a 0.2876(13) 1.5042(15) 0.7349(9) 0.0113(19) 1
B2 B3+ 2 a 0.4451(18) 1.2587(13) 0.8681(11) 0.0071(19) 1
O12 O2- 2 a 0.8480(9) 0.8644(9) 0.9062(6) 0.0171(13) 1
O13 O2- 2 a 0.1328(11) 1.0028(9) 0.6678(6) 0.0275(19) 1
B3 B3+ 2 a -0.3855(13) 1.3534(11) 0.6779(8) 0.0079(18) 1
B4 B3+ 2 a 0.1306(15) 0.8128(14) 0.6758(8) 0.012(2) 1
B5 B3+ 2 a -0.0522(13) 1.5026(14) 0.6340(9) 0.0065(17) 1
B6 B3+ 2 a 0.8064(12) 0.7433(13) 0.9957(10) 0.003(2) 1
loop_
_atom_site_aniso_label
_atom_site_aniso_type_symbol
_atom_site_aniso_U_11
_atom_site_aniso_U_22
_atom_site_aniso_U_33
_atom_site_aniso_U_12
_atom_site_aniso_U_13
_atom_site_aniso_U_23
Ba1 Ba2+ 0.0119(2) 0.0102(3) 0.0091(3) -0.0012(2) 0.00060(19) 0.00103(19)
Ba2 Ba2+ 0.0137(2) 0.0117(2) 0.0136(2) 0.0000(2) 0.00042(15) -0.0030(2)
Ba3 Ba2+ 0.0094(2) 0.0126(3) 0.0087(3) 0.00024(18) -0.00037(19) 0.00069(17)
O1 O2- 0.010(3) 0.004(3) 0.012(3) 0.000(2) -0.001(2) -0.002(2)
O2 O2- 0.008(2) 0.012(3) 0.006(2) -0.003(2) 0.005(2) -0.002(2)
O3 O2- 0.008(3) 0.007(2) 0.015(3) 0.000(3) 0.000(2) 0.000(2)
O4 O2- 0.013(3) 0.013(3) 0.010(3) 0.001(3) -0.003(2) -0.003(3)
O5 O2- 0.008(3) 0.009(3) 0.012(3) 0.001(3) -0.002(2) -0.001(2)
O6 O2- 0.008(3) 0.013(3) 0.016(4) 0.002(2) -0.001(3) 0.005(2)
O7 O2- 0.007(2) 0.009(3) 0.006(3) -0.003(2) 0.000(2) -0.003(2)
O8 O2- 0.008(3) 0.005(3) 0.019(4) 0.003(2) 0.003(3) 0.002(2)
O9 O2- 0.011(3) 0.004(3) 0.012(3) 0.001(2) -0.002(3) -0.002(2)
O10 O2- 0.017(3) 0.014(3) 0.016(3) -0.003(3) 0.002(3) 0.000(3)
O11 O2- 0.015(3) 0.012(3) 0.008(3) -0.009(2) -0.004(2) 0.003(2)
B1 B3+ 0.006(4) 0.014(5) 0.014(5) 0.005(4) -0.002(4) 0.006(4)
B2 B3+ 0.005(4) 0.007(4) 0.010(5) -0.001(3) -0.005(4) -0.002(3)
O12 O2- 0.020(3) 0.013(3) 0.018(3) -0.003(2) -0.004(3) 0.003(2)
O13 O2- 0.013(3) 0.013(3) 0.010(3) 0.001(3) -0.003(2) -0.003(3)
B3 B3+ 0.009(2) 0.007(2) 0.009(2) 0.0007(19) 0.0008(18) -0.0007(18)
B4 B3+ 0.015(5) 0.008(4) 0.013(6) 0.000(4) 0.007(5) 0.002(4)
B5 B3+ 0.006(2) 0.006(2) 0.007(2) 0.0015(18) 0.0004(18) -0.0001(18)
B6 B3+ 0.002(3) 0.003(3) 0.003(2) -0.0003(17) -0.0006(19) 0.0010(18)
#End of TTdata_262542-ICSD