
#(C) 2020 by FIZ Karlsruhe - Leibniz Institute for Information Infrastructure.  All rights reserved.
data_262538-ICSD
_database_code_ICSD 262538
_audit_creation_date 2012-08-01
_chemical_name_common 'Tristrontium difluoridohexaborate'
_chemical_formula_structural 'Sr3 B6 O11 F2'
_chemical_formula_sum 'B6 F2 O11 Sr3'
_chemical_name_structure_type Ba3B6O11F2
_exptl_crystal_density_diffrn 3.69
_diffrn_ambient_temperature 293.
_citation_title 'Two novel acentric borate fluorides: M3 B6 O11 F2 (M = Sr, Ba)'
loop_
_citation_id
_citation_journal_full
_citation_year
_citation_journal_volume
_citation_page_first
_citation_page_last
_citation_journal_id_ASTM
primary 'Inorganic Chemistry' 2012 51 3953 3955 INOCAJ
loop_
_citation_author_citation_id
_citation_author_name
primary 'McMillen, C.D.'
primary 'Stritzinger, J.T.'
primary 'Kolis, J.W.'
_cell_length_a 6.4093(13)
_cell_length_b 8.2898(17)
_cell_length_c 9.3656(19)
_cell_angle_alpha 90.
_cell_angle_beta 101.51(3)
_cell_angle_gamma 90.
_cell_volume 487.6
_cell_formula_units_Z 2
_space_group_name_H-M_alt 'P 1 21 1'
_space_group_IT_number 4
loop_
_space_group_symop_id
_space_group_symop_operation_xyz
1 '-x, y+1/2, -z'
2 'x, y, z'
loop_
_atom_type_symbol
_atom_type_oxidation_number
Sr2+ 2
O2- -2
F1- -1
O2- -2
F1- -1
O2- -2
B3+ 3
loop_
_atom_site_label
_atom_site_type_symbol
_atom_site_symmetry_multiplicity
_atom_site_Wyckoff_symbol
_atom_site_fract_x
_atom_site_fract_y
_atom_site_fract_z
_atom_site_U_iso_or_equiv
_atom_site_occupancy
Sr1 Sr2+ 2 a 0.98316(7) 0.24390(5) 0.75967(5) 0.01090(12) 1
Sr2 Sr2+ 2 a 0.56403(6) -0.11475(5) 0.53410(4) 0.01070(13) 1
Sr3 Sr2+ 2 a 0.54861(6) 0.39678(5) 1.04899(5) 0.01171(13) 1
O1 O2- 2 a 0.5474(5) -0.4603(5) 0.7273(4) 0.0121(7) 1
O2 O2- 2 a 0.8397(5) 0.4516(4) 0.4883(3) 0.0091(7) 1
F1 F1- 2 a 1.3465(5) 0.1827(4) 0.8887(4) 0.0270(8) 1
O3 O2- 2 a 1.1831(5) 0.4961(4) 0.6269(3) 0.0094(7) 1
F2 F1- 2 a 0.6145(5) 0.1673(4) 0.6215(3) 0.0247(7) 1
O4 O2- 2 a 0.3071(4) -0.2329(4) 0.6928(3) 0.0081(6) 1
O5 O2- 2 a 0.9478(5) 0.7191(4) 0.5489(3) 0.0120(7) 1
O6 O2- 2 a 0.9100(5) -0.4631(4) 0.8352(3) 0.0126(7) 1
O7 O2- 2 a 0.9910(5) 0.4350(4) 0.2756(3) 0.0120(7) 1
O8 O2- 2 a 0.9236(5) 0.2793(4) 1.0442(3) 0.0108(7) 1
O9 O2- 2 a 0.8684(5) 0.0290(4) 0.9211(3) 0.0110(6) 1
O10 O2- 2 a 0.7243(5) -0.2133(4) 0.8033(3) 0.0097(7) 1
O11 O2- 2 a 0.2940(5) -0.4310(4) 0.8789(3) 0.0117(7) 1
B1 B3+ 2 a 0.9306(7) -0.1193(7) 0.8569(5) 0.0082(9) 1
B2 B3+ 2 a 0.8963(8) 0.1025(7) 1.0630(6) 0.0115(11) 1
B3 B3+ 2 a 0.8945(8) 0.3404(7) 0.3739(5) 0.0099(10) 1
B4 B3+ 2 a 1.3279(8) 0.5975(7) 0.7322(6) 0.0111(11) 1
B5 B3+ 2 a 0.9921(8) 0.5582(7) 0.5558(5) 0.0097(10) 1
B6 B3+ 2 a 0.7296(8) -0.3779(7) 0.7905(6) 0.0107(11) 1
loop_
_atom_site_aniso_label
_atom_site_aniso_type_symbol
_atom_site_aniso_U_11
_atom_site_aniso_U_22
_atom_site_aniso_U_33
_atom_site_aniso_U_12
_atom_site_aniso_U_13
_atom_site_aniso_U_23
Sr1 Sr2+ 0.0135(2) 0.0077(2) 0.0110(2) 0.0003(2) 0.00128(16) 0.0004(2)
Sr2 Sr2+ 0.0107(2) 0.0110(3) 0.0105(2) -0.0002(2) 0.00227(15) 0.0015(2)
Sr3 Sr2+ 0.0110(2) 0.0113(3) 0.0121(2) 0.0006(2) 0.00068(15) 0.0025(2)
O1 O2- 0.0102(15) 0.0103(17) 0.0167(17) 0.0015(14) 0.0049(13) -0.0041(14)
O2 O2- 0.0081(14) 0.0098(18) 0.0101(15) -0.0008(13) 0.0037(12) -0.0045(13)
F1 F1- 0.0254(16) 0.0158(17) 0.0336(19) 0.0020(14) -0.0093(14) -0.0027(14)
O3 O2- 0.0100(14) 0.0090(18) 0.0094(16) -0.0011(13) 0.0021(12) -0.0014(13)
F2 F1- 0.0261(16) 0.0194(17) 0.0241(17) 0.0022(14) -0.0058(13) 0.0012(14)
O4 O2- 0.0073(13) 0.0073(16) 0.0091(15) 0.0003(13) 0.0004(11) 0.0005(13)
O5 O2- 0.0125(15) 0.0130(18) 0.0095(16) 0.0008(14) -0.0002(12) 0.0010(13)
O6 O2- 0.0126(15) 0.0111(17) 0.0132(16) -0.0001(14) 0.0006(13) -0.0013(14)
O7 O2- 0.0148(15) 0.0127(18) 0.0102(16) -0.0014(13) 0.0070(13) -0.0002(13)
O8 O2- 0.0115(14) 0.0116(17) 0.0086(15) -0.0011(14) 0.0004(12) -0.0003(13)
O9 O2- 0.0173(15) 0.0087(16) 0.0090(15) 0.0006(14) 0.0074(12) -0.0011(13)
O10 O2- 0.0087(14) 0.0069(17) 0.0122(16) -0.0015(13) -0.0013(12) -0.0010(12)
O11 O2- 0.0102(14) 0.0153(18) 0.0101(17) 0.0019(14) 0.0033(12) 0.0024(14)
B1 B3+ 0.010(2) 0.007(2) 0.008(2) -0.001(2) 0.0031(18) -0.002(2)
B2 B3+ 0.010(2) 0.015(3) 0.009(3) 0.000(2) 0.0014(19) 0.004(2)
B3 B3+ 0.010(2) 0.010(3) 0.008(2) 0.004(2) -0.0022(19) -0.0035(19)
B4 B3+ 0.009(2) 0.012(3) 0.013(3) -0.001(2) 0.004(2) -0.002(2)
B5 B3+ 0.012(2) 0.013(3) 0.004(2) -0.002(2) 0.0026(18) -0.004(2)
B6 B3+ 0.014(2) 0.016(3) 0.003(2) 0.001(2) 0.0054(19) -0.001(2)
#End of TTdata_262538-ICSD