
#(C) 2020 by FIZ Karlsruhe - Leibniz Institute for Information Infrastructure.  All rights reserved.
data_262502-ICSD
_database_code_ICSD 262502
_audit_creation_date 2012-08-01
_chemical_name_common 'Dibarium tetrahydroxohexaborate'
_chemical_formula_structural 'Ba2 (B6 O9 (O H)4)'
_chemical_formula_sum 'H4 B6 Ba2 O13'
_exptl_crystal_density_diffrn 3.71
_diffrn_ambient_temperature 296.
_citation_title

;
UV nonlinear optical crystal Ba2 [B6 O9 (O H)4] featuring unique chiral layers
with a new B18 O42 circle based on B O3 and B O4 units
;
loop_
_citation_id
_citation_journal_full
_citation_year
_citation_journal_volume
_citation_page_first
_citation_page_last
_citation_journal_id_ASTM
primary 'Inorganic Chemistry' 2012 51 1852 1858 INOCAJ
loop_
_citation_author_citation_id
_citation_author_name
primary 'Wang Li'
primary 'Pan Shilie'
primary 'Chang Lixian'
primary 'Hu Jianyang'
primary 'Yu Hongwei'
_cell_length_a 6.828(2)
_cell_length_b 8.706(3)
_cell_length_c 8.441(3)
_cell_angle_alpha 90.
_cell_angle_beta 100.615(3)
_cell_angle_gamma 90.
_cell_volume 493.18
_cell_formula_units_Z 2
_space_group_name_H-M_alt 'P 1 21 1'
_space_group_IT_number 4
loop_
_space_group_symop_id
_space_group_symop_operation_xyz
1 '-x, y+1/2, -z'
2 'x, y, z'
loop_
_atom_type_symbol
_atom_type_oxidation_number
B3+ 3
Ba2+ 2
H1+ 1
O2- -2
H1+ 1
O2- -2
loop_
_atom_site_label
_atom_site_type_symbol
_atom_site_symmetry_multiplicity
_atom_site_Wyckoff_symbol
_atom_site_fract_x
_atom_site_fract_y
_atom_site_fract_z
_atom_site_U_iso_or_equiv
_atom_site_occupancy
B1 B3+ 2 a 0.4591(11) 0.7267(10) 0.4518(9) 0.0065(13) 1
B2 B3+ 2 a 0.6455(11) 0.5041(10) 0.5911(9) 0.0080(13) 1
B3 B3+ 2 a 0.9041(11) 0.2952(9) 0.6316(9) 0.0075(13) 1
B4 B3+ 2 a 0.9283(11) 0.2869(10) 0.9424(9) 0.0082(14) 1
B5 B3+ 2 a 1.1409(10) 0.0659(10) 1.0528(8) 0.0067(13) 1
B6 B3+ 2 a 1.3665(12) -0.1062(9) 0.9620(10) 0.0093(15) 1
Ba1 Ba2+ 2 a 0.19629(5) 0.43316(4) 0.28141(5) 0.00929(14) 1
Ba2 Ba2+ 2 a 0.24552(5) 0.57205(5) 0.76318(5) 0.01006(14) 1
H1 H1+ 2 a 0.462(13) 0.694(10) 0.221(6) 0.012 1
H2 H1+ 2 a 1.159(12) 0.255(9) 0.624(9) 0.012 1
H3 H1+ 2 a 1.297(12) -0.038(9) 0.727(9) 0.012 1
O1 O2- 2 a 0.5131(7) 0.6545(6) 0.3102(6) 0.0110(9) 1
O2 O2- 2 a 0.2514(7) 0.7027(6) 0.4657(6) 0.0084(9) 1
O3 O2- 2 a 0.5922(7) 0.6580(6) 0.5928(6) 0.0098(10) 1
O4 O2- 2 a 0.4963(7) 0.3962(6) 0.5476(6) 0.0099(10) 1
O5 O2- 2 a 0.8386(7) 0.4604(5) 0.6383(6) 0.0094(10) 1
O6 O2- 2 a 1.0788(7) 0.3057(7) 0.5539(7) 0.0141(11) 1
O7 O2- 2 a 0.9644(7) 0.2272(6) 0.7916(6) 0.0078(9) 1
O8 O2- 2 a 0.9919(7) 0.4497(6) 0.9660(6) 0.0079(10) 1
O9 O2- 2 a 1.0648(7) 0.2077(6) 1.0808(7) 0.0096(10) 1
O10 O2- 2 a 1.3353(7) 0.0457(6) 1.0419(6) 0.0095(10) 1
O11 O2- 2 a 1.2794(7) -0.2317(5) 1.0388(6) 0.0077(9) 1
O12 O2- 2 a 1.5821(8) -0.1219(6) 0.9833(8) 0.0156(11) 1
H4 H1+ 2 a 1.6111 -0.2128 0.9772 0.023 1
O13 O2- 2 a 1.2666(8) -0.1038(6) 0.7915(7) 0.0139(11) 1
loop_
_atom_site_aniso_label
_atom_site_aniso_type_symbol
_atom_site_aniso_U_11
_atom_site_aniso_U_22
_atom_site_aniso_U_33
_atom_site_aniso_U_12
_atom_site_aniso_U_13
_atom_site_aniso_U_23
B1 B3+ 0.0064(16) 0.0068(16) 0.0064(16) 0.0002(10) 0.0011(10) 0.0006(10)
B2 B3+ 0.005(3) 0.010(3) 0.008(4) -0.003(3) -0.001(2) 0.000(3)
B3 B3+ 0.010(3) 0.004(3) 0.008(3) -0.001(3) 0.002(2) 0.002(3)
B4 B3+ 0.007(3) 0.007(3) 0.010(4) -0.003(3) 0.002(3) -0.002(3)
B5 B3+ 0.011(3) 0.007(3) 0.003(3) 0.000(3) 0.001(2) -0.001(3)
B6 B3+ 0.0091(17) 0.0094(18) 0.0095(18) -0.0003(10) 0.0018(10) -0.0005(10)
Ba1 Ba2+ 0.0102(2) 0.0088(2) 0.0078(2) -0.00041(15) -0.00117(14) -0.00113(14)
Ba2 Ba2+ 0.0095(2) 0.0126(2) 0.0090(2) -0.00075(15) 0.00394(14) -0.00064(15)
O1 O2- 0.012(2) 0.014(2) 0.008(2) 0.001(2) 0.0040(17) -0.002(2)
O2 O2- 0.007(2) 0.007(2) 0.011(2) -0.0032(19) 0.0014(17) 0.0023(19)
O3 O2- 0.010(2) 0.008(2) 0.009(2) 0.000(2) -0.0021(17) 0.0003(19)
O4 O2- 0.006(2) 0.006(3) 0.017(3) -0.0007(19) 0.0005(18) -0.0015(19)
O5 O2- 0.006(2) 0.006(2) 0.015(3) 0.0011(17) 0.0004(17) 0.0029(18)
O6 O2- 0.011(2) 0.017(3) 0.017(3) 0.003(2) 0.009(2) 0.004(2)
O7 O2- 0.013(2) 0.007(2) 0.005(2) 0.0011(19) 0.0040(17) 0.0018(19)
O8 O2- 0.006(2) 0.006(2) 0.013(3) -0.0007(19) 0.0027(18) -0.0011(19)
O9 O2- 0.010(2) 0.006(2) 0.012(3) 0.0009(19) -0.0005(18) 0.002(2)
O10 O2- 0.008(2) 0.008(2) 0.013(3) 0.0006(19) 0.0040(17) -0.0028(19)
O11 O2- 0.0077(12) 0.0076(12) 0.0081(12) -0.0002(9) 0.0018(9) 0.0016(9)
O12 O2- 0.008(2) 0.010(2) 0.030(3) 0.001(2) 0.006(2) 0.002(2)
O13 O2- 0.017(2) 0.017(3) 0.008(3) -0.003(2) 0.0042(18) 0.003(2)
#End of TTdata_262502-ICSD