
#(C) 2020 by FIZ Karlsruhe - Leibniz Institute for Information Infrastructure.  All rights reserved.
data_262645-ICSD
_database_code_ICSD 262645
_audit_creation_date 2012-08-01
_chemical_name_common 'Diindium dilithium germanium hexaselenide'
_chemical_formula_structural 'In2 Li2 Ge Se6'
_chemical_formula_sum 'Ge1 In2 Li2 Se6'
_chemical_name_structure_type Cd4GeS6
_exptl_crystal_density_diffrn 4.64
_diffrn_ambient_temperature 296.
_citation_title

;
Synthesis, structure, and properties of Li2 In2 M Q6 (M = Si, Ge; Q = S, Se):
a new series of IR nonlinear optical materials
;
loop_
_citation_id
_citation_journal_full
_citation_year
_citation_journal_volume
_citation_page_first
_citation_page_last
_citation_journal_id_ASTM
primary 'Inorganic Chemistry' 2012 51 5839 5843 INOCAJ
loop_
_citation_author_citation_id
_citation_author_name
primary 'Yin Wenlong'
primary 'Feng Kai'
primary 'Hao Wenyu'
primary 'Yao Jiyong'
primary 'Wu Yicheng'
_cell_length_a 12.7226(4)
_cell_length_b 7.4527(4)
_cell_length_c 12.6698(5)
_cell_angle_alpha 90.
_cell_angle_beta 109.826(4)
_cell_angle_gamma 90.
_cell_volume 1130.12
_cell_formula_units_Z 4
_space_group_name_H-M_alt 'C 1 c 1'
_space_group_IT_number 9
loop_
_space_group_symop_id
_space_group_symop_operation_xyz
1 'x, -y, z+1/2'
2 'x, y, z'
3 'x+1/2, -y+1/2, z+1/2'
4 'x+1/2, y+1/2, z'
loop_
_atom_type_symbol
_atom_type_oxidation_number
Li1+ 1
In3+ 3
Ge4+ 4
Se2- -2
loop_
_atom_site_label
_atom_site_type_symbol
_atom_site_symmetry_multiplicity
_atom_site_Wyckoff_symbol
_atom_site_fract_x
_atom_site_fract_y
_atom_site_fract_z
_atom_site_U_iso_or_equiv
_atom_site_occupancy
Li1 Li1+ 4 a 0.7907(14) 0.806(3) 0.3435(17) 0.042(6) 1
Li2 Li1+ 4 a 0.998(2) 0.599(2) 0.9949(18) 0.043(5) 1
In1 In3+ 4 a 0.97911(5) 0.90843(8) 0.68822(5) 0.01652(14) 1
In2 In3+ 4 a 0.65586(5) 0.57111(8) 0.99203(5) 0.01700(14) 1
Ge1 Ge4+ 4 a 0.72588(7) 0.73228(10) 0.74773(7) 0.01082(18) 1
Se1 Se2- 4 a 0.98495(8) 0.75576(12) 0.50721(8) 0.01827(19) 1
Se2 Se2- 4 a 0.60330(8) 0.72533(11) 0.37846(8) 0.01835(18) 1
Se3 Se2- 4 a 0.53261(8) 0.74805(10) 0.69594(8) 0.01812(19) 1
Se4 Se2- 4 a 0.79845(7) 0.47718(12) 0.69402(7) 0.0200(2) 1
Se5 Se2- 4 a 0.77331(7) 0.98535(12) 0.66544(7) 0.01711(18) 1
Se6 Se2- 4 a 0.80169(8) 0.76397(12) 0.94130(7) 0.0190(2) 1
loop_
_atom_site_aniso_label
_atom_site_aniso_type_symbol
_atom_site_aniso_U_11
_atom_site_aniso_U_22
_atom_site_aniso_U_33
_atom_site_aniso_U_12
_atom_site_aniso_U_13
_atom_site_aniso_U_23
Li1 Li1+ 0.011(8) 0.064(13) 0.045(11) -0.011(8) 0.004(8) 0.045(11)
Li2 Li1+ 0.074(16) 0.013(8) 0.051(13) -0.025(8) 0.033(12) 0.000(7)
In1 In3+ 0.0157(3) 0.0192(3) 0.0167(3) -0.0014(2) 0.0081(2) -0.0004(2)
In2 In3+ 0.0194(3) 0.0180(3) 0.0164(3) -0.0013(2) 0.0097(2) 0.0000(2)
Ge1 Ge4+ 0.0112(4) 0.0107(4) 0.0119(4) -0.0008(3) 0.0057(3) 0.0000(3)
Se1 Se2- 0.0198(5) 0.0171(4) 0.0198(4) -0.0021(3) 0.0092(4) -0.0025(3)
Se2 Se2- 0.0221(4) 0.0162(4) 0.0176(4) 0.0003(3) 0.0078(3) -0.0002(3)
Se3 Se2- 0.0110(4) 0.0161(4) 0.0273(4) 0.0002(3) 0.0066(3) 0.0022(3)
Se4 Se2- 0.0223(5) 0.0179(4) 0.0180(4) 0.0079(3) 0.0046(3) -0.0039(3)
Se5 Se2- 0.0160(4) 0.0142(4) 0.0233(4) 0.0003(3) 0.0095(3) 0.0068(3)
Se6 Se2- 0.0204(5) 0.0253(4) 0.0118(4) -0.0083(3) 0.0062(3) -0.0030(3)
#End of TTdata_262645-ICSD