
#(C) 2020 by FIZ Karlsruhe - Leibniz Institute for Information Infrastructure.  All rights reserved.
data_263469-ICSD
_database_code_ICSD 263469
_audit_creation_date 2018-08-01
_chemical_name_common 'Strontium pentaborate trifluoride'
_chemical_formula_structural 'Sr B5 O7 F3'
_chemical_formula_sum 'B5 F3 O7 Sr1'
_exptl_crystal_density_diffrn 2.94
_diffrn_ambient_temperature 296.
_citation_title

;
SrB5O7F3 functionalized with [B5O9F3]6- chromophores. Accelerating the
rational design of deep-ultraviolet nonlinear optical materials
;
loop_
_citation_id
_citation_journal_full
_citation_year
_citation_journal_volume
_citation_page_first
_citation_page_last
_citation_journal_id_ASTM
primary 'Angewandte Chemie, International Edition' 2018 57 6095 6099 ACIEF5
loop_
_citation_author_citation_id
_citation_author_name
primary 'Mutailipu, Miriding'
primary 'Zhang, Min'
primary 'Zhang, Bingbing'
primary 'Wang, Liying'
primary 'Yang, Zhihua'
primary 'Zhou, Xin'
primary 'Pan, Shilie'
_cell_length_a 10.016(6)
_cell_length_b 8.654(6)
_cell_length_c 8.103(5)
_cell_angle_alpha 90.
_cell_angle_beta 90.
_cell_angle_gamma 90.
_cell_volume 702.35
_cell_formula_units_Z 4
_space_group_name_H-M_alt 'C m c 21'
_space_group_IT_number 36
loop_
_space_group_symop_id
_space_group_symop_operation_xyz
1 'x, -y, z+1/2'
2 '-x, -y, z+1/2'
3 '-x, y, z'
4 'x, y, z'
5 'x+1/2, -y+1/2, z+1/2'
6 '-x+1/2, -y+1/2, z+1/2'
7 '-x+1/2, y+1/2, z'
8 'x+1/2, y+1/2, z'
loop_
_atom_type_symbol
_atom_type_oxidation_number
Sr2+ 2
B3+ 3
O2- -2
F1- -1
loop_
_atom_site_label
_atom_site_type_symbol
_atom_site_symmetry_multiplicity
_atom_site_Wyckoff_symbol
_atom_site_fract_x
_atom_site_fract_y
_atom_site_fract_z
_atom_site_U_iso_or_equiv
_atom_site_occupancy
Sr1 Sr2+ 4 a 0.5 0.25773(5) 0.72130(14) 0.00958(16) 1
B1 B3+ 8 b 0.3653(4) 0.8545(5) 0.6411(5) 0.0087(9) 1
B2 B3+ 8 b 0.2666(5) 0.7337(5) 0.8952(6) 0.0119(9) 1
B3 B3+ 4 a 0.5 0.6734(7) 0.8379(8) 0.0106(13) 1
O1 O2- 8 b 0.2572(2) 0.8122(3) 0.7482(3) 0.0122(7) 1
O2 O2- 4 a 0.5 0.8067(4) 0.7148(6) 0.0080(7) 1
O3 O2- 8 b 0.3508(3) 0.7883(4) 0.4786(3) 0.0130(6) 1
O4 O2- 8 b 0.3854(3) 0.6776(3) 0.9451(3) 0.0117(6) 1
F1 F1- 8 b 0.3686(2) 1.0173(3) 0.6285(3) 0.0175(5) 1
F2 F1- 4 a 0.5 0.5367(3) 0.7422(4) 0.0199(7) 1
loop_
_atom_site_aniso_label
_atom_site_aniso_type_symbol
_atom_site_aniso_U_11
_atom_site_aniso_U_22
_atom_site_aniso_U_33
_atom_site_aniso_U_12
_atom_site_aniso_U_13
_atom_site_aniso_U_23
Sr1 Sr2+ 0.0081(2) 0.0108(2) 0.0099(2) 0. 0. 0.0001(3)
B1 B3+ 0.006(2) 0.008(2) 0.012(2) -0.0005(15) -0.0042(16) 0.0016(17)
B2 B3+ 0.012(2) 0.013(2) 0.011(2) -0.0015(16) 0.0006(17) -0.0009(17)
B3 B3+ 0.010(3) 0.009(3) 0.014(3) 0. 0. 0.000(2)
O1 O2- 0.0084(13) 0.0189(14) 0.0092(17) 0.0016(10) 0.0018(11) 0.0032(12)
O2 O2- 0.0084(15) 0.0091(16) 0.0066(15) 0. 0. 0.003(2)
O3 O2- 0.0093(14) 0.0208(17) 0.0089(13) -0.0003(12) -0.0007(11) -0.0030(12)
O4 O2- 0.0080(14) 0.0153(17) 0.0118(13) -0.0007(12) 0.0005(11) 0.0043(12)
F1 F1- 0.0134(11) 0.0088(12) 0.0303(13) -0.0004(9) -0.0037(11) 0.0046(10)
F2 F1- 0.0294(17) 0.0101(15) 0.0201(18) 0. 0. -0.0063(17)
#End of TTdata_263469-ICSD