
#(C) 2020 by FIZ Karlsruhe - Leibniz Institute for Information Infrastructure.  All rights reserved.
data_263515-ICSD
_database_code_ICSD 263515
_audit_creation_date 2018-08-01
_chemical_name_common 'Dicalcium diborosilicate'
_chemical_formula_structural 'Ca2 B2 Si O7'
_chemical_formula_sum 'B2 Ca2 O7 Si1'
_exptl_crystal_density_diffrn 3.13
_citation_title

;
High-temperature crystal chemistry of layered calcium borosilicates.
CaBSiO4(OH) (datolite), Ca4B5Si3O15(OH)5 ('bakerite') and Ca2B2SiO7 (synthetic
analogue of okayamalite)
;
loop_
_citation_id
_citation_journal_full
_citation_year
_citation_journal_volume
_citation_page_first
_citation_page_last
_citation_journal_id_ASTM
primary 'Physics and Chemistry of Minerals' 2018 45 463 473 PCMIDU
loop_
_citation_author_citation_id
_citation_author_name
primary 'Krzhizhanovskaya, Maria G.'
primary 'Gorelova, L.A.'
primary 'Bubnova, R.S.'
primary 'Pekov, I.V.'
primary 'Krivovichev, S.V.'
_cell_length_a 7.3361(4)
_cell_length_b 7.1987(4)
_cell_length_c 4.8619(4)
_cell_angle_alpha 90
_cell_angle_beta 90
_cell_angle_gamma 90
_cell_volume 256.75
_cell_formula_units_Z 2
_space_group_name_H-M_alt 'P 21 21 2'
_space_group_IT_number 18
loop_
_space_group_symop_id
_space_group_symop_operation_xyz
1 '-x+1/2, y+1/2, -z'
2 'x+1/2, -y+1/2, -z'
3 '-x, -y, z'
4 'x, y, z'
loop_
_atom_type_symbol
_atom_type_oxidation_number
Ca2+ 2
Si4+ 4
B3+ 3
O2- -2
loop_
_atom_site_label
_atom_site_type_symbol
_atom_site_symmetry_multiplicity
_atom_site_Wyckoff_symbol
_atom_site_fract_x
_atom_site_fract_y
_atom_site_fract_z
_atom_site_B_iso_or_equiv
_atom_site_occupancy
Ca1 Ca2+ 4 c 0.3290(6) 0.1596(6) 0.4989(11) 7.2(3) 1
Si1 Si4+ 2 a 0 0 0 5.9(4) 1
B1 B3+ 4 c 0.1429(11) 0.3571(11) 0.9364(16) 5.9(4) 1
O1 O2- 2 b 0.5 0 0.1281(35) 5.9(3) 1
O2 O2- 4 c 0.1350(15) 0.3525(18) 0.2447(16) 5.9(3) 1
O3 O2- 4 c 0.0781(12) 0.1738(10) 0.8192(12) 5.9(3) 1
O4 O2- 4 c 0.1706(11) -0.0737(13) -0.8041(17) 5.9(3) 1
#End of TTdata_263515-ICSD