
#(C) 2020 by FIZ Karlsruhe - Leibniz Institute for Information Infrastructure.  All rights reserved.
data_264388-ICSD
_database_code_ICSD 264388
_audit_creation_date 2019-02-01
_chemical_name_common 'Calcium trifluoro pentaborate'
_chemical_formula_structural 'Ca B5 O7 F3'
_chemical_formula_sum 'B5 Ca1 F3 O7'
_exptl_crystal_density_diffrn 2.63
_diffrn_ambient_temperature 296.
_citation_title

;
CaB5O7F3. A beryllium-free alkaline-earth fluorooxoborate exhibiting excellent
nonlinear optical performances
;
loop_
_citation_id
_citation_journal_full
_citation_year
_citation_journal_volume
_citation_page_first
_citation_page_last
_citation_journal_id_ASTM
primary 'Inorganic Chemistry' 2018 57 4820 4823 INOCAJ
loop_
_citation_author_citation_id
_citation_author_name
primary 'Zhang, Zhizhong'
primary 'Wang, Ying'
primary 'Zhang, Bingbing'
primary 'Yang, Zhihua'
primary 'Pan, Shilie'
_cell_length_a 9.926(10)
_cell_length_b 8.400(8)
_cell_length_c 7.966(8)
_cell_angle_alpha 90.
_cell_angle_beta 90.
_cell_angle_gamma 90.
_cell_volume 664.19
_cell_formula_units_Z 4
_space_group_name_H-M_alt 'C m c 21'
_space_group_IT_number 36
loop_
_space_group_symop_id
_space_group_symop_operation_xyz
1 'x, -y, z+1/2'
2 '-x, -y, z+1/2'
3 '-x, y, z'
4 'x, y, z'
5 'x+1/2, -y+1/2, z+1/2'
6 '-x+1/2, -y+1/2, z+1/2'
7 '-x+1/2, y+1/2, z'
8 'x+1/2, y+1/2, z'
loop_
_atom_type_symbol
_atom_type_oxidation_number
Ca2+ 2
B3+ 3
O2- -2
F1- -1
loop_
_atom_site_label
_atom_site_type_symbol
_atom_site_symmetry_multiplicity
_atom_site_Wyckoff_symbol
_atom_site_fract_x
_atom_site_fract_y
_atom_site_fract_z
_atom_site_U_iso_or_equiv
_atom_site_occupancy
Ca1 Ca2+ 4 a 0.5 0.75946(9) 0.67803(13) 0.00958(17) 1
B1 B3+ 8 b 0.7353(3) 0.7674(4) 1.0038(4) 0.0098(6) 1
B2 B3+ 4 a 0.5 1.1724(5) 0.5561(6) 0.0087(9) 1
B3 B3+ 8 b 0.8660(3) 0.8607(4) 0.7565(4) 0.0078(6) 1
O1 O2- 4 a 0.5 1.3093(3) 0.6783(4) 0.0077(5) 1
O2 O2- 8 b 0.85613(17) 0.7931(2) 0.9225(2) 0.0121(5) 1
O3 O2- 8 b 0.75509(15) 0.8150(2) 0.6503(2) 0.0108(5) 1
O4 O2- 8 b 0.61597(17) 0.8250(2) 0.9478(2) 0.0106(5) 1
F1 F1- 8 b 0.86994(13) 1.02910(19) 0.7664(3) 0.0171(4) 1
F2 F1- 4 a 0.5 1.0298(3) 0.6547(3) 0.0171(5) 1
loop_
_atom_site_aniso_label
_atom_site_aniso_type_symbol
_atom_site_aniso_U_11
_atom_site_aniso_U_22
_atom_site_aniso_U_33
_atom_site_aniso_U_12
_atom_site_aniso_U_13
_atom_site_aniso_U_23
Ca1 Ca2+ 0.0089(3) 0.0109(4) 0.0090(3) 0. 0. -0.0006(4)
B1 B3+ 0.0073(13) 0.0140(15) 0.0082(15) -0.0017(11) 0.0029(11) -0.0044(13)
B2 B3+ 0.009(2) 0.007(2) 0.010(2) 0. 0. -0.0002(16)
B3 B3+ 0.0074(14) 0.0091(15) 0.0070(14) 0.0008(11) 0.0021(11) 0.0001(12)
O1 O2- 0.0081(11) 0.0094(12) 0.0056(12) 0. 0. -0.0014(17)
O2 O2- 0.0068(9) 0.0217(13) 0.0077(11) -0.0008(8) 0.0011(8) 0.0030(9)
O3 O2- 0.0076(8) 0.0177(10) 0.0070(12) -0.0001(7) -0.0023(8) -0.0031(8)
O4 O2- 0.0072(8) 0.0156(12) 0.0091(11) 0.0005(8) 0.0017(8) 0.0033(8)
F1 F1- 0.0142(8) 0.0103(9) 0.0269(9) 0.0001(6) 0.0046(8) -0.0036(8)
F2 F1- 0.0249(11) 0.0081(10) 0.0183(14) 0. 0. 0.0050(12)
#End of TTdata_264388-ICSD