
#(C) 2020 by FIZ Karlsruhe - Leibniz Institute for Information Infrastructure.  All rights reserved.
data_27103-ICSD
_database_code_ICSD 27103
_audit_creation_date 1980-01-01
_audit_update_record 2014-08-01
_chemical_name_common 'Trigermanium dizinc oxide'
_chemical_formula_structural 'Ge3 Zn2 O8'
_chemical_formula_sum 'Ge3 O8 Zn2'
_chemical_name_structure_type Zn2Ge3O8
_exptl_crystal_density_diffrn 5.71
_citation_title
'Preparation de spinelles lacunaires par reaction d'echange a l'etat solide.'
loop_
_citation_id
_citation_journal_full
_citation_year
_citation_journal_volume
_citation_page_first
_citation_page_last
_citation_journal_id_ASTM
primary 'Comptes Rendus Hebdomadaires des Seances de l'Academie des Sciences'
1963 256 4403 4405 COREAF
loop_
_citation_author_citation_id
_citation_author_name
primary 'Joubert, J.C.'
primary 'Durif, A.'
_cell_length_a 8.213(2)
_cell_length_b 8.213(2)
_cell_length_c 8.213(2)
_cell_angle_alpha 90.
_cell_angle_beta 90.
_cell_angle_gamma 90.
_cell_volume 553.99
_cell_formula_units_Z 4
_space_group_name_H-M_alt 'P 43 3 2'
_space_group_IT_number 212
loop_
_space_group_symop_id
_space_group_symop_operation_xyz
1 'z+1/4, y+3/4, -x+3/4'
2 '-z+3/4, y+1/4, x+3/4'
3 'y+1/4, x+3/4, -z+3/4'
4 '-y+3/4, x+1/4, z+3/4'
5 'x+1/4, z+3/4, -y+3/4'
6 '-x+3/4, z+1/4, y+3/4'
7 'z+3/4, -y+3/4, x+1/4'
8 '-z+1/4, -y+1/4, -x+1/4'
9 'y+3/4, -x+3/4, z+1/4'
10 '-y+1/4, -x+1/4, -z+1/4'
11 'x+3/4, -z+3/4, y+1/4'
12 '-x+1/4, -z+1/4, -y+1/4'
13 '-y+1/2, -z, x+1/2'
14 '-y, z+1/2, -x+1/2'
15 'y+1/2, -z+1/2, -x'
16 'y, z, x'
17 'z+1/2, -x+1/2, -y'
18 '-z+1/2, -x, y+1/2'
19 '-z, x+1/2, -y+1/2'
20 'z, x, y'
21 '-x+1/2, -y, z+1/2'
22 '-x, y+1/2, -z+1/2'
23 'x+1/2, -y+1/2, -z'
24 'x, y, z'
loop_
_atom_type_symbol
_atom_type_oxidation_number
Ge4+ 4
Zn2+ 2
O2- -2
loop_
_atom_site_label
_atom_site_type_symbol
_atom_site_symmetry_multiplicity
_atom_site_Wyckoff_symbol
_atom_site_fract_x
_atom_site_fract_y
_atom_site_fract_z
_atom_site_B_iso_or_equiv
_atom_site_occupancy
Ge1 Ge4+ 12 d 0.125 0.363 -.113 . 1.
Zn1 Zn2+ 8 c 0.008 0.008 0.008 . 1.
O1 O2- 24 e 0.137 0.137 0.387 . 1.
O2 O2- 8 c 0.387 0.387 0.387 . 1.
#End of TTdata_27103-ICSD