
#(C) 2020 by FIZ Karlsruhe - Leibniz Institute for Information Infrastructure.  All rights reserved.
data_27647-ICSD
_database_code_ICSD 27647
_audit_creation_date 1980-01-01
_audit_update_record 2014-08-01
_chemical_name_common 'Calcium aluminium borate oxide'
_chemical_formula_structural 'Ca Al B O4'
_chemical_formula_sum 'Al1 B1 Ca1 O4'
_chemical_name_structure_type CaAlBO4
_exptl_crystal_density_diffrn 2.61
_citation_title 'Zur Struktur des Calcium-Aluminium-Borates, Ca Al (O B O3)'
loop_
_citation_id
_citation_journal_full
_citation_year
_citation_journal_volume
_citation_page_first
_citation_page_last
_citation_journal_id_ASTM
primary 'Neues Jahrbuch fuer Mineralogie, Monatshefte' 1968 1968 80 86 NJMMAW
loop_
_citation_author_citation_id
_citation_author_name
primary 'Schuckmann, W.'
_cell_length_a 8.269(2)
_cell_length_b 15.227(3)
_cell_length_c 5.733(3)
_cell_angle_alpha 90.
_cell_angle_beta 90.
_cell_angle_gamma 90.
_cell_volume 721.85
_cell_formula_units_Z 8
_space_group_name_H-M_alt 'C c c 2'
_space_group_IT_number 37
loop_
_space_group_symop_id
_space_group_symop_operation_xyz
1 'x, -y, z+1/2'
2 '-x, y, z+1/2'
3 '-x, -y, z'
4 'x, y, z'
5 'x+1/2, -y+1/2, z+1/2'
6 '-x+1/2, y+1/2, z+1/2'
7 '-x+1/2, -y+1/2, z'
8 'x+1/2, y+1/2, z'
loop_
_atom_type_symbol
_atom_type_oxidation_number
Ca2+ 2
Al3+ 3
B3+ 3
O2- -2
loop_
_atom_site_label
_atom_site_type_symbol
_atom_site_symmetry_multiplicity
_atom_site_Wyckoff_symbol
_atom_site_fract_x
_atom_site_fract_y
_atom_site_fract_z
_atom_site_B_iso_or_equiv
_atom_site_occupancy
Ca1 Ca2+ 8 d 0.1432(1) 0.0936(1) 0 . 1.
Al1 Al3+ 8 d 0.0083(4) 0.2942(1) 0.2633(5) . 1.
B1 B3+ 8 d 0.2645(10) 0.1108(5) 0.5211(17) . 1.
O1 O2- 8 d 0.0300(6) 0.2337(3) 0.0107(13) . 1.
O2 O2- 8 d 0.1792(9) 0.3619(5) 0.3047(9) . 1.
O3 O2- 8 d 0.3437(10) 0.1343(6) 0.7241(10) . 1.
O4 O2- 8 d 0.1306(7) 0.0582(4) 0.5424(11) . 1.
#End of TTdata_27647-ICSD