
#(C) 2020 by FIZ Karlsruhe - Leibniz Institute for Information Infrastructure.  All rights reserved.
data_27929-ICSD
_database_code_ICSD 27929
_audit_creation_date 1980-01-01
_audit_update_record 2011-02-01
_chemical_name_common 'Potassium difluorodioxoiodate(V)'
_chemical_formula_structural 'K I O2 F2'
_chemical_formula_sum 'F2 I1 K1 O2'
_chemical_name_structure_type KIO2F2
_exptl_crystal_density_diffrn 3.7
_citation_title
'Ferroelastic K I O2 F2: Crystal structure and ferroelastic transformation'
loop_
_citation_id
_citation_journal_full
_citation_year
_citation_journal_volume
_citation_page_first
_citation_page_last
_citation_journal_id_ASTM
primary 'Journal of Chemical Physics' 1976 64 3254 3260 JCPSA6
loop_
_citation_author_citation_id
_citation_author_name
primary 'Abrahams, S.C.'
primary 'Bernstein, J.L.'
_cell_length_a 8.39430(4)
_cell_length_b 5.97918(5)
_cell_length_c 8.44680(3)
_cell_angle_alpha 90.
_cell_angle_beta 90.
_cell_angle_gamma 90.
_cell_volume 423.95
_cell_formula_units_Z 4
_space_group_name_H-M_alt 'P c a 21'
_space_group_IT_number 29
loop_
_space_group_symop_id
_space_group_symop_operation_xyz
1 'x+1/2, -y, z'
2 '-x+1/2, y, z+1/2'
3 '-x, -y, z+1/2'
4 'x, y, z'
loop_
_atom_type_symbol
_atom_type_oxidation_number
I5+ 5
K1+ 1
F1- -1
O2- -2
loop_
_atom_site_label
_atom_site_type_symbol
_atom_site_symmetry_multiplicity
_atom_site_Wyckoff_symbol
_atom_site_fract_x
_atom_site_fract_y
_atom_site_fract_z
_atom_site_B_iso_or_equiv
_atom_site_occupancy
I1 I5+ 4 a 0.00215(9) 0.06378(7) 0 . 1.
K1 K1+ 4 a 0.2168(4) 0.4690(4) 0.7178(6) . 1.
F1 F1- 4 a -.0756(13) 0.3628(14) -.0781(13) . 1.
F2 F1- 4 a 0.0773(15) -.2331(12) 0.0741(16) . 1.
O1 O2- 4 a 0.1991(10) 0.1570(13) -.0287(15) . 1.
O2 O2- 4 a -.0372(16) 0.1530(25) 0.1966(15) . 1.
#End of TTdata_27929-ICSD