
#(C) 2020 by FIZ Karlsruhe - Leibniz Institute for Information Infrastructure.  All rights reserved.
data_280304-ICSD
_database_code_ICSD 280304
_audit_creation_date 2002-04-01
_audit_update_record 2005-10-01
_chemical_name_common 'Metaboric acid - gamma'
_chemical_formula_structural 'H B O2'
_chemical_formula_sum 'H1 B1 O2'
_exptl_crystal_density_diffrn 2.49
_diffrn_ambient_temperature 183.
_citation_title
'The monoclinic and cubic phases of metaboric acid (precise redeterminations)'
loop_
_citation_id
_citation_journal_full
_citation_year
_citation_journal_volume
_citation_page_first
_citation_page_last
_citation_journal_id_ASTM
primary 'Acta Crystallographica, Section C: Crystal Structure Communications'
2000 56 276 278 ACSCEE
loop_
_citation_author_citation_id
_citation_author_name
primary 'Freyhardt, C.C.'
primary 'Wiebcke, M.'
primary 'Felsche, J.'
_cell_length_a 8.8811(3)
_cell_length_b 8.8811(3)
_cell_length_c 8.8811(3)
_cell_angle_alpha 90.
_cell_angle_beta 90.
_cell_angle_gamma 90.
_cell_volume 700.49
_cell_formula_units_Z 24
_space_group_name_H-M_alt 'P -4 3 n'
_space_group_IT_number 218
loop_
_space_group_symop_id
_space_group_symop_operation_xyz
1 '-z+1/2, y+1/2, -x+1/2'
2 '-y+1/2, x+1/2, -z+1/2'
3 '-x+1/2, z+1/2, -y+1/2'
4 'z+1/2, -y+1/2, -x+1/2'
5 'y+1/2, -x+1/2, -z+1/2'
6 'x+1/2, -z+1/2, -y+1/2'
7 '-z+1/2, -y+1/2, x+1/2'
8 '-y+1/2, -x+1/2, z+1/2'
9 '-x+1/2, -z+1/2, y+1/2'
10 'z+1/2, y+1/2, x+1/2'
11 'y+1/2, x+1/2, z+1/2'
12 'x+1/2, z+1/2, y+1/2'
13 '-z, -x, y'
14 '-y, -z, x'
15 '-x, -y, z'
16 'z, -x, -y'
17 'y, -z, -x'
18 'x, -y, -z'
19 '-z, x, -y'
20 '-y, z, -x'
21 '-x, y, -z'
22 'z, x, y'
23 'y, z, x'
24 'x, y, z'
loop_
_atom_type_symbol
_atom_type_oxidation_number
B3+ 3
O2- -2
H1+ 1
loop_
_atom_site_label
_atom_site_type_symbol
_atom_site_symmetry_multiplicity
_atom_site_Wyckoff_symbol
_atom_site_fract_x
_atom_site_fract_y
_atom_site_fract_z
_atom_site_U_iso_or_equiv
_atom_site_occupancy
B1 B3+ 24 i 0.71733(5) 0.80853(5) 0.58110(5) . 1.
O1 O2- 24 i 0.82221(4) 0.92596(4) 0.64509(4) . 1.
O2 O2- 24 i 0.80015(4) 0.66772(3) 0.58016(4) . 1.
H1 H1+ 24 i 0.9275(15) 0.8920(16) 0.6707(16) 0.035(4) 1.
loop_
_atom_site_aniso_label
_atom_site_aniso_type_symbol
_atom_site_aniso_U_11
_atom_site_aniso_U_22
_atom_site_aniso_U_33
_atom_site_aniso_U_12
_atom_site_aniso_U_13
_atom_site_aniso_U_23
B1 B3+ 0.00421(14) 0.00403(14) 0.00397(14) 0.00006(11) 0.00022(11) -.00001(11)
O1 O2- 0.00374(9) 0.00327(10) 0.0058(1) 0.00029(7) -.00085(7) -.00098(8)
O2 O2- 0.00556(10) 0.00352(9) 0.00355(9) 0.00102(7) 0.00044(8) 0.00027(8)
#End of TTdata_280304-ICSD