
#(C) 2020 by FIZ Karlsruhe - Leibniz Institute for Information Infrastructure.  All rights reserved.
data_280924-ICSD
_database_code_ICSD 280924
_audit_creation_date 2003-04-01
_audit_update_record 2005-10-01
_chemical_name_common 'Bis(ammonium) fluorotrioxophosphate(V)'
_chemical_formula_structural '(N H4)2 (P O3 F)'
_chemical_formula_sum 'H8 F1 N2 O3 P1'
_chemical_name_structure_type (NH4)2SO4
_exptl_crystal_density_diffrn 1.63
_diffrn_ambient_temperature 292.
_citation_title 'Bis(ammonium) fluorophosphate at room temperature'
loop_
_citation_id
_citation_journal_full
_citation_year
_citation_journal_volume
_citation_page_first
_citation_page_last
_citation_journal_id_ASTM
primary 'Acta Crystallographica, Section C: Crystal Structure Communications'
2002 58 i66 i68 ACSCEE
loop_
_citation_author_citation_id
_citation_author_name
primary 'Krupkova, R.'
primary 'Fabry, J.'
primary 'Cisarova, I.'
primary 'Vanek, P.'
_cell_length_a 7.9481(2)
_cell_length_b 11.3472(3)
_cell_length_c 6.0425(3)
_cell_angle_alpha 90.
_cell_angle_beta 90.
_cell_angle_gamma 90.
_cell_volume 544.97
_cell_formula_units_Z 4
_space_group_name_H-M_alt 'P n a 21'
_space_group_IT_number 33
loop_
_space_group_symop_id
_space_group_symop_operation_xyz
1 'x+1/2, -y+1/2, z'
2 '-x+1/2, y+1/2, z+1/2'
3 '-x, -y, z+1/2'
4 'x, y, z'
loop_
_atom_type_symbol
_atom_type_oxidation_number
P5+ 5
N3- -3
F1- -1
O2- -2
H1+ 1
loop_
_atom_site_label
_atom_site_type_symbol
_atom_site_symmetry_multiplicity
_atom_site_Wyckoff_symbol
_atom_site_fract_x
_atom_site_fract_y
_atom_site_fract_z
_atom_site_U_iso_or_equiv
_atom_site_occupancy
P1 P5+ 4 a 0.30924(3) 0.37324(2) 0.25 0.02187(11) 1.
N1 N3- 4 a 0.85814(14) 0.46079(9) 0.2665(3) 0.0292(3) 1.
N2 N3- 4 a 0.91018(14) 0.80919(10) 0.2611(3) 0.0343(3) 1.
F1 F1- 4 a 0.49926(8) 0.41610(7) 0.2586(2) 0.0437(2) 1.
O1 O2- 4 a 0.21318(12) 0.48190(9) 0.3206(2) 0.0319(3) 1.
O2 O2- 4 a 0.30211(15) 0.27216(11) 0.4070(2) 0.0422(4) 1.
O3 O2- 4 a 0.28164(13) 0.34436(10) 0.0099(2) 0.0331(3) 1.
H1 H1+ 4 a 0.9676(17) 0.4632(12) 0.274(4) 0.033(4) 1.
H2 H1+ 4 a 0.826(2) 0.4780(17) 0.130(2) 0.036(5) 1.
H3 H1+ 4 a 0.809(2) 0.5117(17) 0.363(3) 0.030(5) 1.
H4 H1+ 4 a 0.838(2) 0.3860(12) 0.304(3) 0.036(5) 1.
H5 H1+ 4 a 0.846(2) 0.7622(16) 0.352(3) 0.032(4) 1.
H6 H1+ 4 a 1.008(2) 0.8253(17) 0.327(3) 0.052(6) 1.
H7 H1+ 4 a 0.859(2) 0.8760(13) 0.271(4) 0.041(4) 1.
H8 H1+ 4 a 0.898(3) 0.777(2) 0.130(3) 0.082(8) 1.
loop_
_atom_site_aniso_label
_atom_site_aniso_type_symbol
_atom_site_aniso_U_11
_atom_site_aniso_U_22
_atom_site_aniso_U_33
_atom_site_aniso_U_12
_atom_site_aniso_U_13
_atom_site_aniso_U_23
P1 P5+ 0.0219(2) 0.0219(2) 0.0218(2) -0.00026(8) 0.00069(14) -0.00011(16)
N1 N3- 0.0259(5) 0.0326(5) 0.0290(7) 0.0019(4) -0.0026(6) -0.0025(6)
N2 N3- 0.0359(6) 0.0290(5) 0.0379(7) -0.0017(4) -0.0026(7) 0.0008(7)
F1 F1- 0.0232(3) 0.0496(4) 0.0583(5) -0.0021(3) -0.0030(5) -0.0034(7)
O1 O2- 0.0301(4) 0.0285(5) 0.0370(6) 0.0025(3) 0.0017(4) -0.0061(4)
O2 O2- 0.0602(8) 0.0316(6) 0.0349(7) 0.0021(4) 0.0049(5) 0.0088(5)
O3 O2- 0.0396(4) 0.0362(5) 0.0236(6) -0.0009(4) 0.0001(4) -0.0044(4)
#End of TTdata_280924-ICSD