
#(C) 2020 by FIZ Karlsruhe - Leibniz Institute for Information Infrastructure.  All rights reserved.
data_281271-ICSD
_database_code_ICSD 281271
_audit_creation_date 2003-10-01
_chemical_name_common 'Dibarium titanodigermanate'
_chemical_formula_structural 'Ba2 (Ti Ge2 O8)'
_chemical_formula_sum 'Ba2 Ge2 O8 Ti1'
_exptl_crystal_density_diffrn 4.88
_citation_title

;
(3+1)-dimensional structure refinement of the fresnoite framework-structure
type compound Ba2 Ti Ge2 O8
;
loop_
_citation_id
_citation_journal_full
_citation_year
_citation_journal_volume
_citation_page_first
_citation_page_last
_citation_journal_id_ASTM
primary 'Acta Crystallographica, Section B: Structural Science' 2003 59 209 216
ASBSDK
loop_
_citation_author_citation_id
_citation_author_name
primary 'Hoeche, T.'
primary 'Esmaeilzadeh, S.'
primary 'Uecker, R.'
primary 'Lidin, S.'
primary 'Neumann, W.'
_cell_length_a 12.3014
_cell_length_b 12.2837
_cell_length_c 10.7367
_cell_angle_alpha 90.
_cell_angle_beta 90.
_cell_angle_gamma 90.
_cell_volume 1622.39
_cell_formula_units_Z 8
_space_group_name_H-M_alt 'C m m 2'
_space_group_IT_number 35
loop_
_space_group_symop_id
_space_group_symop_operation_xyz
1 'x, -y, z'
2 '-x, y, z'
3 '-x, -y, z'
4 'x, y, z'
5 'x+1/2, -y+1/2, z'
6 '-x+1/2, y+1/2, z'
7 '-x+1/2, -y+1/2, z'
8 'x+1/2, y+1/2, z'
loop_
_atom_type_symbol
_atom_type_oxidation_number
Ba2+ 2
Ge4+ 4
Ti4+ 4
O2- -2
Ba2+ 2
Ge4+ 4
Ti4+ 4
O2- -2
loop_
_atom_site_label
_atom_site_type_symbol
_atom_site_symmetry_multiplicity
_atom_site_Wyckoff_symbol
_atom_site_fract_x
_atom_site_fract_y
_atom_site_fract_z
_atom_site_U_iso_or_equiv
_atom_site_occupancy
Ba1 Ba2+ 4 e 0 0.3267(6) 0 0.057(3) 1.
Ba2 Ba2+ 4 d 0.1699(5) 0 -.0022(13) 0.036(2) 1.
Ge1 Ge4+ 4 e 0 0.1309(4) 0.2425(9) 0.0472(16) 1.
Ge2 Ge4+ 4 d 0.3695(4) 0 0.245(1) 0.057(2) 1.
Ti1 Ti4+ 4 c 0.25 0.25 0.2271(10) 0.034(3) 1.
O1 O2- 8 f 0.1076(3) 0.1951(4) 0.1784(11) 0.059(2) 1.
O2 O2- 2 a 0 0 0.1793(13) 0.035(3) 1.
O3 O2- 8 f 0.3063(4) 0.1116(3) 0.1718(10) 0.0450(16) 1.
O4 O2- 2 b 0.5 0 0.1767(14) 0.047(3) 1.
O5 O2- 4 e 0 0.1259(4) 0.3987(12) 0.042(2) 1.
O6 O2- 4 d 0.3752(4) 0 0.4045(11) 0.046(3) 1.
O7 O2- 4 c 0.25 0.25 0.3877(9) 0.057(2) 1.
Ba3 Ba2+ 4 e 0 0.3267(6) 0.5 0.057(3) 1.
Ba4 Ba2+ 4 d 0.1699(5) 0 -.5022(13) 0.036(2) 1.
Ge3 Ge4+ 4 e 0 0.1309(4) 0.7425(9) 0.0472(16) 1.
Ge4 Ge4+ 4 d 0.3695(4) 0 0.745(1) 0.057(2) 1.
Ti2 Ti4+ 4 c 0.25 0.25 0.7271(10) 0.034(3) 1.
O8 O2- 8 f 0.1076(3) 0.1951(4) 0.6784(11) 0.059(2) 1.
O9 O2- 2 a 0 0 0.6793(13) 0.035(3) 1.
O10 O2- 8 f 0.3063(4) 0.1116(3) 0.6718(10) 0.0450(16) 1.
O11 O2- 2 b 0.5 0 0.6767(14) 0.047(3) 1.
O12 O2- 4 e 0 0.1259(4) 0.8987(12) 0.042(2) 1.
O13 O2- 4 d 0.3752(4) 0 0.9045(11) 0.046(3) 1.
O14 O2- 4 c 0.25 0.25 0.8877(9) 0.057(2) 1.
loop_
_atom_site_aniso_label
_atom_site_aniso_type_symbol
_atom_site_aniso_U_11
_atom_site_aniso_U_22
_atom_site_aniso_U_33
_atom_site_aniso_U_12
_atom_site_aniso_U_13
_atom_site_aniso_U_23
Ba1 Ba2+ 0.065(4) 0.043(3) 0.064(5) 0 0 -0.036(4)
Ba2 Ba2+ 0.029(3) 0.060(4) 0.019(4) 0 -0.014(3) 0
Ge1 Ge4+ 0.046(3) 0.048(2) 0.048(3) 0 0 -0.005(2)
Ge2 Ge4+ 0.078(4) 0.027(2) 0.065(4) 0 -0.019(3) 0
Ti1 Ti4+ 0.017(4) 0.052(6) 0.032(4) 0.012(5) 0 0
O1 O2- 0.039(2) 0.037(3) 0.103(5) 0.003(2) 0.007(3) 0.017(4)
O2 O2- 0.024(6) 0.067(6) 0.014(4) 0 0 0
O3 O2- 0.054(3) 0.042(3) 0.039(3) 0.015(2) -0.001(3) -0.016(3)
O4 O2- 0.007(4) 0.070(6) 0.065(6) 0 0 0
O5 O2- 0.046(4) 0.032(3) 0.048(5) 0 0 0.010(3)
O6 O2- 0.025(3) 0.064(4) 0.050(5) 0 0.002(3) 0
O7 O2- 0.053(3) 0.063(5) 0.055(3) -0.011(5) 0 0
Ba3 Ba2+ 0.065(4) 0.043(3) 0.064(5) 0 0 -0.036(4)
Ba4 Ba2+ 0.029(3) 0.060(4) 0.019(4) 0 -0.014(3) 0
Ge3 Ge4+ 0.046(3) 0.048(2) 0.048(3) 0 0 -0.005(2)
Ge4 Ge4+ 0.078(4) 0.027(2) 0.065(4) 0 -0.019(3) 0
Ti2 Ti4+ 0.017(4) 0.052(6) 0.032(4) 0.012(5) 0 0
O8 O2- 0.039(2) 0.037(3) 0.103(5) 0.003(2) 0.007(3) 0.017(4)
O9 O2- 0.024(6) 0.067(6) 0.014(4) 0 0 0
O10 O2- 0.054(3) 0.042(3) 0.039(3) 0.015(2) -0.001(3) -0.016(3)
O11 O2- 0.007(4) 0.070(6) 0.065(6) 0 0 0
O12 O2- 0.046(4) 0.032(3) 0.048(5) 0 0 0.010(3)
O13 O2- 0.025(3) 0.064(4) 0.050(5) 0 0.002(3) 0
O14 O2- 0.053(3) 0.063(5) 0.055(3) -0.011(5) 0 0
#End of TTdata_281271-ICSD