
#(C) 2020 by FIZ Karlsruhe - Leibniz Institute for Information Infrastructure.  All rights reserved.
data_281322-ICSD
_database_code_ICSD 281322
_audit_creation_date 2004-04-01
_chemical_name_common 'Boric acid'
_chemical_formula_structural 'H3 (B O3)'
_chemical_formula_sum 'H3 B1 O3'
_exptl_crystal_density_diffrn 1.5
_diffrn_ambient_temperature 297.
_citation_title 'A new polytype of orthoboric acid, H3 B O3 - 3T(1)'
loop_
_citation_id
_citation_journal_full
_citation_year
_citation_journal_volume
_citation_page_first
_citation_page_last
_citation_journal_id_ASTM
primary 'Acta Crystallographica, Section C: Crystal Structure Communications'
2003 59 i47 i49 ACSCEE
loop_
_citation_author_citation_id
_citation_author_name
primary 'Shuvalov, R.R.'
primary 'Burns, P.C.'
_cell_length_a 7.0453(4)
_cell_length_b 7.0453(4)
_cell_length_c 9.5608(7)
_cell_angle_alpha 90.
_cell_angle_beta 90.
_cell_angle_gamma 120.
_cell_volume 410.98
_cell_formula_units_Z 6
_space_group_name_H-M_alt 'P 32'
_space_group_IT_number 145
loop_
_space_group_symop_id
_space_group_symop_operation_xyz
1 '-x+y, -x, z+1/3'
2 '-y, x-y, z+2/3'
3 'x, y, z'
loop_
_atom_type_symbol
_atom_type_oxidation_number
B3+ 3
O2- -2
H1+ 1
loop_
_atom_site_label
_atom_site_type_symbol
_atom_site_symmetry_multiplicity
_atom_site_Wyckoff_symbol
_atom_site_fract_x
_atom_site_fract_y
_atom_site_fract_z
_atom_site_U_iso_or_equiv
_atom_site_occupancy
B1 B3+ 3 a 0.1837(9) 0.6403(10) 0.2849(7) 0.0485(17) 1.
B2 B3+ 3 a 0.5180(5) 0.3069(5) 0.2964(5) 0.0277(9) 1.
O1 O2- 3 a 0.0621(6) 0.7393(7) 0.2805(3) 0.0514(8) 1.
O2 O2- 3 a 0.0864(6) 0.4195(5) 0.2808(3) 0.0467(7) 1.
O3 O2- 3 a 0.4090(5) 0.7650(6) 0.2869(3) 0.0441(8) 1.
O4 O2- 3 a 0.6437(6) 0.2103(5) 0.2929(2) 0.0413(7) 1.
O5 O2- 3 a 0.2950(6) 0.1832(6) 0.2998(3) 0.0506(8) 1.
O6 O2- 3 a 0.6136(7) 0.5294(6) 0.2904(3) 0.0464(8) 1.
H1 H1+ 3 a 0.133(4) 0.877(3) 0.316(3) 0.015(7) 1.
H2 H1+ 3 a -.057(3) 0.361(5) 0.311(3) 0.013(7) 1.
H3 H1+ 3 a 0.483(4) 0.695(4) 0.311(3) 0.022(7) 1.
H4 H1+ 3 a 0.565(5) 0.077(4) 0.333(3) 0.048(10) 1.
H5 H1+ 3 a 0.243(5) 0.274(4) 0.324(3) 0.027(8) 1.
H6 H1+ 3 a 0.755(3) 0.602(4) 0.318(3) 0.027(8) 1.
loop_
_atom_site_aniso_label
_atom_site_aniso_type_symbol
_atom_site_aniso_U_11
_atom_site_aniso_U_22
_atom_site_aniso_U_33
_atom_site_aniso_U_12
_atom_site_aniso_U_13
_atom_site_aniso_U_23
B1 B3+ 0.045(3) 0.056(3) 0.050(3) 0.029(2) -0.0005(16) -0.002(2)
B2 B3+ 0.0144(12) 0.0177(14) 0.053(3) 0.0093(11) 0.0007(10) 0.0015(11)
O1 O2- 0.0246(14) 0.0384(18) 0.097(2) 0.0198(14) -0.0021(15) -0.0049(16)
O2 O2- 0.0263(15) 0.0278(14) 0.0859(19) 0.0133(13) -0.0038(16) -0.0024(14)
O3 O2- 0.0233(12) 0.0254(14) 0.082(2) 0.0108(12) -0.0006(14) -0.0032(14)
O4 O2- 0.0279(16) 0.0249(15) 0.072(2) 0.0138(14) -0.0007(13) -0.0025(12)
O5 O2- 0.0284(14) 0.0379(18) 0.0902(19) 0.0201(13) -0.0026(15) 0.0010(16)
O6 O2- 0.0307(19) 0.0325(15) 0.0772(18) 0.0167(13) 0.0070(15) 0.0080(13)
#End of TTdata_281322-ICSD