
#(C) 2020 by FIZ Karlsruhe - Leibniz Institute for Information Infrastructure.  All rights reserved.
data_28178-ICSD
_database_code_ICSD 28178
_audit_creation_date 1980-01-01
_audit_update_record 2007-04-01
_chemical_name_common 'Dilithium digermanium oxide'
_chemical_formula_structural 'Li2 Ge2 O5'
_chemical_formula_sum 'Ge2 Li2 O5'
_chemical_name_structure_type Li2Si2O5(Cc)
_exptl_crystal_density_diffrn 3.51
_citation_title 'Die Verfeinerung der Kristallstruktur von Li2 Ge2 O5'
loop_
_citation_id
_citation_journal_full
_citation_year
_citation_journal_volume
_citation_page_first
_citation_page_last
_citation_journal_id_ASTM
primary 'Monatshefte fuer Chemie' 1968 99 251 254 MOCMB7
loop_
_citation_author_citation_id
_citation_author_name
primary 'Voellenkle, H.'
primary 'Wittmann, A.'
_cell_length_a 5.99
_cell_length_b 15.19
_cell_length_c 4.97
_cell_angle_alpha 90.
_cell_angle_beta 90.
_cell_angle_gamma 90.
_cell_volume 452.21
_cell_formula_units_Z 4
_space_group_name_H-M_alt 'C 1 c 1'
_space_group_IT_number 9
loop_
_space_group_symop_id
_space_group_symop_operation_xyz
1 'x, -y, z+1/2'
2 'x, y, z'
3 'x+1/2, -y+1/2, z+1/2'
4 'x+1/2, y+1/2, z'
loop_
_atom_type_symbol
_atom_type_oxidation_number
Li1+ 1
Ge4+ 4
O2- -2
loop_
_atom_site_label
_atom_site_type_symbol
_atom_site_symmetry_multiplicity
_atom_site_Wyckoff_symbol
_atom_site_fract_x
_atom_site_fract_y
_atom_site_fract_z
_atom_site_B_iso_or_equiv
_atom_site_occupancy
Li1 Li1+ 4 a 0.34 0.056 0.525 0.5 1.
Li2 Li1+ 4 a 0.66 0.056 0.025 0.5 1.
Ge1 Ge4+ 4 a 0.158 0.147 0.88 0.3 1.
Ge2 Ge4+ 4 a 0.845 0.147 0.38 0.3 1.
O1 O2- 4 a 0.264 0.25 0.95 0.5 1.
O2 O2- 4 a 0.1 0.14 0.537 0.5 1.
O3 O2- 4 a 0.9 0.14 0.037 0.5 1.
O4 O2- 4 a 0.343 0.0665 0.933 0.5 1.
O5 O2- 4 a 0.657 0.0665 0.433 0.5 1.
#End of TTdata_28178-ICSD