
#(C) 2020 by FIZ Karlsruhe - Leibniz Institute for Information Infrastructure.  All rights reserved.
data_28213-ICSD
_database_code_ICSD 28213
_audit_creation_date 1980-01-01
_audit_update_record 2007-04-01
_chemical_name_common 'Sodium yttrium germanate'
_chemical_formula_structural 'Na Y (Ge O4)'
_chemical_formula_sum 'Ge1 Na1 O4 Y1'
_chemical_name_structure_type NaSmGeO4
_exptl_crystal_density_diffrn 4.16
_citation_title 'Crystal structure of synthetic Na, Y - orthogermanate'
loop_
_citation_id
_citation_journal_full
_citation_year
_citation_journal_volume
_citation_page_first
_citation_page_last
_citation_journal_id_ASTM
primary 'Zhurnal Strukturnoi Khimii' 1970 11 159 161 ZSTKAI
loop_
_citation_author_citation_id
_citation_author_name
primary 'Kuz'min, E.A. (Kuzmin, E.A.)'
primary 'Maksimov, B.A.'
primary 'Ilyukhin, V.V.'
primary 'Belov, N.V.'
_cell_length_a 5.32
_cell_length_b 11.49
_cell_length_c 6.49
_cell_angle_alpha 90.
_cell_angle_beta 90.
_cell_angle_gamma 90.
_cell_volume 396.71
_cell_formula_units_Z 4
_space_group_name_H-M_alt 'P b n 21'
_space_group_IT_number 33
loop_
_space_group_symop_id
_space_group_symop_operation_xyz
1 '-x+1/2, y+1/2, z'
2 'x+1/2, -y+1/2, z+1/2'
3 '-x, -y, z+1/2'
4 'x, y, z'
loop_
_atom_type_symbol
_atom_type_oxidation_number
Y3+ 3
Na1+ 1
Ge4+ 4
O2- -2
loop_
_atom_site_label
_atom_site_type_symbol
_atom_site_symmetry_multiplicity
_atom_site_Wyckoff_symbol
_atom_site_fract_x
_atom_site_fract_y
_atom_site_fract_z
_atom_site_B_iso_or_equiv
_atom_site_occupancy
Y1 Y3+ 4 a 0.003 0.222 0 0 1.
Na1 Na1+ 4 a 0.476 0.009 0.254 0.4 1.
Ge1 Ge4+ 4 a 0.057 0.097 0.477 0 1.
O1 O2- 4 a 0.221 0.162 0.692 0.1 1.
O2 O2- 4 a 0.182 0.189 0.306 0.2 1.
O3 O2- 4 a 0.333 0.462 0.473 0 1.
O4 O2- 4 a 0.253 0.398 0.015 0.1 1.
#End of TTdata_28213-ICSD