
#(C) 2020 by FIZ Karlsruhe - Leibniz Institute for Information Infrastructure.  All rights reserved.
data_28427-ICSD
_database_code_ICSD 28427
_audit_creation_date 1980-01-01
_audit_update_record 2007-08-01
_chemical_name_common 'Calcium trihydroxotetraoxotriborate hydrate - LT'
_chemical_formula_structural 'Ca (B3 O4 (O H)3) (H2 O)'
_chemical_formula_sum 'H5 B3 Ca1 O8'
_chemical_name_mineral Colemanite
_exptl_crystal_density_diffrn 2.42
_diffrn_ambient_temperature 253.
_citation_title 'The Structural Basis of Ferroelectricity in Colemanite'
loop_
_citation_id
_citation_journal_full
_citation_year
_citation_journal_volume
_citation_page_first
_citation_page_last
_citation_journal_id_ASTM
primary 'Canadian Journal of Physics' 1966 44 3083 3107 CJPHAD
loop_
_citation_author_citation_id
_citation_author_name
primary 'Hainsworth, F.N.'
primary 'Petch, H.E.'
_cell_length_a 8.743(4)
_cell_length_b 11.264(2)
_cell_length_c 6.102(3)
_cell_angle_alpha 90.
_cell_angle_beta 110.12(8)
_cell_angle_gamma 90.
_cell_volume 564.26
_cell_formula_units_Z 4
_space_group_name_H-M_alt 'P 1 21 1'
_space_group_IT_number 4
loop_
_space_group_symop_id
_space_group_symop_operation_xyz
1 '-x, y+1/2, -z'
2 'x, y, z'
loop_
_atom_type_symbol
_atom_type_oxidation_number
Ca2+ 2
B3+ 3
O2- -2
H1+ 1
Ca2+ 2
B3+ 3
O2- -2
H1+ 1
loop_
_atom_site_label
_atom_site_type_symbol
_atom_site_symmetry_multiplicity
_atom_site_Wyckoff_symbol
_atom_site_fract_x
_atom_site_fract_y
_atom_site_fract_z
_atom_site_B_iso_or_equiv
_atom_site_occupancy
Ca1 Ca2+ 2 a 0.3929(27) 0.2878(18) 0.7320(47) 0.97 1.
B1 B3+ 2 a 0.5821(19) 0.2164(28) 0.3040(55) 0.23 1.
B2 B3+ 2 a 0.4704(17) 0.0604(26) 0.4906(62) 0.18 1.
B3 B3+ 2 a 0.2938(19) 0.1784(25) 0.1640(48) 0.7 1.
O1 O2- 2 a 0.597(2) 0.1473(29) 0.5054(46) 1.19 1.
O2 O2- 2 a 0.4426(18) 0.2291(30) 0.1381(31) 0.15 1.
O3 O2- 2 a 0.3318(21) 0.0581(29) 0.2680(48) 0.93 1.
O4 O2- 2 a 0.7302(20) 0.2537(30) 0.3165(42) 0.51 1.
O5 O2- 2 a 0.5481(26) -.0614(37) 0.5162(82) 1.81 1.
O6 O2- 2 a 0.4104(23) 0.0790(33) 0.6696(46) 1.5 1.
O7 O2- 2 a 0.1705(21) 0.1568(32) -.0691(49) 1.46 1.
O8 O2- 2 a 0.3599(18) 0.4878(23) 0.8974(32) 0.54 1.
H1 H1+ 2 a 0.3331(40) 0.0198(36) 0.6922(92) 1.7 1.
H2 H1+ 2 a 0.1606(27) 0.0878(29) -.1365(55) 0.7 1.
H3 H1+ 2 a 0.5645(25) -.0937(36) 0.6823(43) 1.6 1.
H4 H1+ 2 a 0.3293(36) 0.5229(34) 0.7232(96) 2.4 1.
H5 H1+ 2 a 0.4524(52) 0.5212(76) 0.0066(99) 4.3 1.
Ca2 Ca2+ 2 a 0.8781(25) 0.2110(18) 0.7434(46) 1.05 1.
B4 B3+ 2 a 0.0876(23) 0.2907(30) 0.3030(69) 0.37 1.
B5 B3+ 2 a 0.9715(20) 0.4585(29) 0.4883(91) 0.61 1.
B6 B3+ 2 a 0.7868(17) 0.3361(24) 0.1614(40) 0.39 1.
O9 O2- 2 a 0.0883(17) 0.3495(24) 0.5063(38) 0.28 1.
O10 O2- 2 a 0.9346(19) 0.2681(32) 0.1446(37) 0.69 1.
O11 O2- 2 a 0.8409(18) 0.4509(29) 0.2704(37) 0.23 1.
O12 O2- 2 a 0.2310(21) 0.2490(32) 0.3139(44) 0.78 1.
O13 O2- 2 a 0.0442(20) 0.5708(30) 0.5075(75) 0.4 1.
O14 O2- 2 a 0.9238(21) 0.4244(29) 0.6984(69) 0.58 1.
O15 O2- 2 a 0.6705(16) 0.3329(27) -.0781(32) 0.15 1.
O16 O2- 2 a 0.8698(27) 0.0256(29) 0.9155(52) 2.47 1.
H6 H1+ 2 a 0.8224(34) 0.4711(38) 0.6989(75) 1.2 1.
H7 H1+ 2 a 0.6847(26) 0.4180(31) -.1204(71) 0.9 1.
H8 H1+ 2 a 0.1322(30) 0.5769(37) 0.6574(62) 2.9 1.
H9 H1+ 2 a 0.7600(69) 0.0052(81) 0.9312(96) 5. 1.
H10 H1+ 2 a 0.9564(33) -.0143(55) 0.0466(64) 1.8 1.
#End of TTdata_28427-ICSD