
#(C) 2020 by FIZ Karlsruhe - Leibniz Institute for Information Infrastructure.  All rights reserved.
data_291434-ICSD
_database_code_ICSD 291434
_audit_creation_date 2015-08-01
_chemical_name_common 'Barium aluminium borate difluoride'
_chemical_formula_structural 'Ba Al (B O3) F2'
_chemical_formula_sum 'Al1 B1 Ba1 F2 O3'
_exptl_crystal_density_diffrn 4.49
_citation_title

;
Synthesis and efficient blue-emitting of Eu(2+)-activated borate fluoride Ba
Al B O3 F2
;
loop_
_citation_id
_citation_journal_full
_citation_year
_citation_journal_volume
_citation_page_first
_citation_page_last
_citation_journal_id_ASTM
primary 'Optical Materials (Amsterdam, Netherlands)' 2014 37 287 292 OMATET
loop_
_citation_author_citation_id
_citation_author_name
primary 'Tao, Zhengxu'
primary 'Huang, Yanlin'
primary 'Cai, Peiqing'
primary 'Kim, Sun Il'
primary 'Seo, Hyo Jin'
_cell_length_a 4.8764(4)
_cell_length_b 4.8764(4)
_cell_length_c 9.3846(9)
_cell_angle_alpha 90.
_cell_angle_beta 90.
_cell_angle_gamma 120.
_cell_volume 193.26
_cell_formula_units_Z 2
_space_group_name_H-M_alt 'P -6'
_space_group_IT_number 174
loop_
_space_group_symop_id
_space_group_symop_operation_xyz
1 '-x+y, -x, -z'
2 '-y, x-y, -z'
3 'x, y, -z'
4 '-x+y, -x, z'
5 '-y, x-y, z'
6 'x, y, z'
loop_
_atom_type_symbol
_atom_type_oxidation_number
Ba2+ 2
Al3+ 3
F1- -1
O2- -2
B3+ 3
loop_
_atom_site_label
_atom_site_type_symbol
_atom_site_symmetry_multiplicity
_atom_site_Wyckoff_symbol
_atom_site_fract_x
_atom_site_fract_y
_atom_site_fract_z
_atom_site_U_iso_or_equiv
_atom_site_occupancy
Ba1 Ba2+ 2 g 0 0 0.2369(20) 0.0261(19) 1.
Al1 Al3+ 1 e -0.3333 -0.6667 0 -0.02(4) 1.
Al2 Al3+ 1 d -0.6667 -0.3333 0.5 -0.09(4) 1.
F1 F1- 2 h -0.6667 -0.3333 0.3138 0.0003 1.
F2 F1- 2 i -0.3333 -0.6667 0.2038 0.0003 1.
O1 O2- 3 j -0.675 -0.0575 0 0.0003 1.
O2 O2- 3 k -0.0567 -0.6761 0.5 0.0003 1.
B1 B3+ 1 c -0.6667 -0.3333 0 0.26(12) 1.
B2 B3+ 1 f -0.3333 -0.6667 0.5 -0.09(12) 1.
#End of TTdata_291434-ICSD