
#(C) 2020 by FIZ Karlsruhe - Leibniz Institute for Information Infrastructure.  All rights reserved.
data_291596-ICSD
_database_code_ICSD 291596
_audit_creation_date 2016-08-01
_chemical_name_common 'Potassium barium lithium aluminoborate fluoride *'
_chemical_formula_structural 'K3 Ba3 Li2 Al4 B6 O20 F'
_chemical_formula_sum 'Al4 B6 Ba3 F1 K3 Li2 O20'
_exptl_crystal_density_diffrn 3.21
_diffrn_ambient_temperature 298.
_citation_title

;
Designing a beryllium-free deep-ultraviolet nonlinear optical material without
a structural instability problem
;
loop_
_citation_id
_citation_journal_full
_citation_year
_citation_journal_volume
_citation_page_first
_citation_page_last
_citation_journal_id_ASTM
primary 'Journal of the American Chemical Society' 2016 138 2961 2964 JACSAT
loop_
_citation_author_citation_id
_citation_author_name
primary 'Zhao, Sangen'
primary 'Kang, Lei'
primary 'Shen, Yaoguo'
primary 'Wang, Xiaodong'
primary 'Asghar, Muhammad Adnan'
primary 'Lin, Zheshuai'
primary 'Xu, Yingying'
primary 'Zeng, Siyuan'
primary 'Hong, Maochun'
primary 'Luo, Junhua'
_cell_length_a 8.7547(3)
_cell_length_b 8.7547(3)
_cell_length_c 16.4346(9)
_cell_angle_alpha 90.
_cell_angle_beta 90.
_cell_angle_gamma 120.
_cell_volume 1090.86
_cell_formula_units_Z 2
_space_group_name_H-M_alt 'P -6 2 c'
_space_group_IT_number 190
loop_
_space_group_symop_id
_space_group_symop_operation_xyz
1 '-x, -x+y, -z'
2 'x-y, -y, -z'
3 'y, x, -z'
4 '-x, -x+y, z+1/2'
5 'x-y, -y, z+1/2'
6 'y, x, z+1/2'
7 '-x+y, -x, -z+1/2'
8 '-y, x-y, -z+1/2'
9 'x, y, -z+1/2'
10 '-x+y, -x, z'
11 '-y, x-y, z'
12 'x, y, z'
loop_
_atom_type_symbol
_atom_type_oxidation_number
Ba2+ 2
K1+ 1
B3+ 3
F1- -1
O2- -2
Li1+ 1
Al3+ 3
loop_
_atom_site_label
_atom_site_type_symbol
_atom_site_symmetry_multiplicity
_atom_site_Wyckoff_symbol
_atom_site_fract_x
_atom_site_fract_y
_atom_site_fract_z
_atom_site_U_iso_or_equiv
_atom_site_occupancy
Ba1 Ba2+ 6 h 0.01235(3) 0.31625(4) 0.75 0.01337(16) 1
K1 K1+ 6 g 0. 0.29556(19) 0.5 0.0255(3) 1
B1 B3+ 12 i 0.3505(8) 0.3455(7) 0.8565(5) 0.0172(15) 1
F1 F1- 2 a 0. 0. 1. 0.028(2) 1
O1 O2- 12 i 0.5319(4) 0.4141(4) 0.85993(16) 0.0265(8) 1
O2 O2- 12 i 0.2917(4) 0.4654(5) 0.85685(18) 0.0305(8) 1
O3 O2- 4 f 0.6667 0.3333 0.9999(2) 0.042(3) 1
O4 O2- 12 i 0.2334(5) 0.1732(5) 0.85440(18) 0.0275(7) 1
Li1 Li1+ 4 e 0. 0. 0.8851(8) 0.006(3) 1
Al1 Al3+ 4 f 0.3333 0.6667 0.89627(18) 0.0120(5) 1
Al2 Al3+ 4 f 0.6667 0.3333 0.89557(17) 0.0121(5) 1
loop_
_atom_site_aniso_label
_atom_site_aniso_type_symbol
_atom_site_aniso_U_11
_atom_site_aniso_U_22
_atom_site_aniso_U_33
_atom_site_aniso_U_12
_atom_site_aniso_U_13
_atom_site_aniso_U_23
Ba1 Ba2+ 0.0096(2) 0.0102(2) 0.0188(2) 0.00384(17) 0. 0.
K1 K1+ 0.0275(9) 0.0236(5) 0.0269(8) 0.0138(5) 0.0055(4) 0.0027(2)
B1 B3+ 0.022(3) 0.017(3) 0.012(3) 0.009(3) 0.003(2) 0.003(2)
F1 F1- 0.038(3) 0.038(3) 0.009(3) 0.0188(16) 0. 0.
O1 O2- 0.013(2) 0.0171(16) 0.0510(17) 0.0084(19) 0.0000(14) 0.0111(13)
O2 O2- 0.0226(17) 0.015(2) 0.0573(17) 0.012(2) -0.0177(14) -0.0116(18)
O3 O2- 0.057(4) 0.057(4) 0.014(4) 0.028(2) 0. 0.
O4 O2- 0.016(2) 0.012(2) 0.0506(16) 0.0035(15) 0.0104(16) -0.0056(16)
Li1 Li1+ 0.005(4) 0.005(4) 0.007(6) 0.002(2) 0. 0.
Al1 Al3+ 0.0071(7) 0.0071(7) 0.0220(13) 0.0035(4) 0. 0.
Al2 Al3+ 0.0093(8) 0.0093(8) 0.0175(13) 0.0047(4) 0. 0.
#End of TTdata_291596-ICSD