
#(C) 2020 by FIZ Karlsruhe - Leibniz Institute for Information Infrastructure.  All rights reserved.
data_291589-ICSD
_database_code_ICSD 291589
_audit_creation_date 2016-08-01
_chemical_name_common 'Sodium tetrabarium bis(gallium tetraborate) tribromide'
_chemical_formula_structural 'Na Ba4 (Ga B4 O9)2 Br3'
_chemical_formula_sum 'B8 Ba4 Br3 Ga2 Na1 O18'
_chemical_name_structure_type NaB4(AlB4O9)2Br3
_exptl_crystal_density_diffrn 4.4
_diffrn_ambient_temperature 296.
_citation_title

;
Na Ba4 (Ga B4 O9)2 X3 (X = Cl, Br) with NLO-active Ga O4 tetrahedral unit:
experimental and ab initio studies
;
loop_
_citation_id
_citation_journal_full
_citation_year
_citation_journal_volume
_citation_page_first
_citation_page_last
_citation_journal_id_ASTM
primary 'Journal of Physical Chemistry C' 2016 120 6190 6197 JPCCCK
loop_
_citation_author_citation_id
_citation_author_name
primary 'Wen, Ming'
primary 'Su, Xin'
primary 'Wu, Hongping'
primary 'Lu, Juanjuan'
primary 'Yang, Zhihua'
primary 'Pan, Shilie'
_cell_length_a 12.1033(10)
_cell_length_b 12.1033(10)
_cell_length_c 6.8329(12)
_cell_angle_alpha 90.
_cell_angle_beta 90.
_cell_angle_gamma 90.
_cell_volume 1000.95
_cell_formula_units_Z 2
_space_group_name_H-M_alt 'P 42 n m'
_space_group_IT_number 102
loop_
_space_group_symop_id
_space_group_symop_operation_xyz
1 '-y+1/2, x+1/2, z+1/2'
2 'y+1/2, -x+1/2, z+1/2'
3 '-y, -x, z'
4 'y, x, z'
5 '-x+1/2, y+1/2, z+1/2'
6 'x+1/2, -y+1/2, z+1/2'
7 '-x, -y, z'
8 'x, y, z'
loop_
_atom_type_symbol
_atom_type_oxidation_number
Ba2+ 2
Ga3+ 3
Na1+ 1
B3+ 3
Br1- -1
O2- -2
loop_
_atom_site_label
_atom_site_type_symbol
_atom_site_symmetry_multiplicity
_atom_site_Wyckoff_symbol
_atom_site_fract_x
_atom_site_fract_y
_atom_site_fract_z
_atom_site_U_iso_or_equiv
_atom_site_occupancy
Ba1 Ba2+ 8 d 0.4832(1) 0.2319(1) 0.5128(2) 0.016(1) 1.
Ga1 Ga3+ 4 c 0.2992(1) 0.2992(1) 1.0197(4) 0.009(1) 1.
Na1 Na1+ 2 a 0.5 0.5 0.8650(30) 0.066(5) 1.
B1 B3+ 8 d 0.5364(10) 0.2669(10) 1.0530(20) 0.016(3) 1.
B2 B3+ 4 c 0.2319(11) 0.2319(11) 0.6500(30) 0.012(4) 1.
B3 B3+ 4 c 0.1844(12) 0.1844(12) 1.3160(30) 0.016(4) 1.
Br1 Br1- 2 a 0.5 0.5 0.4270(7) 0.039(1) 1.
Br2 Br1- 4 b 0.5 0 0.2819(10) 0.089(1) 1.
O1 O2- 4 c 0.2530(6) 0.2530(6) 1.4333(18) 0.006(2) 1.
O2 O2- 8 d 0.6173(7) 0.2422(7) 0.1867(13) 0.019(2) 1.
O3 O2- 8 d 0.5647(6) 0.2953(6) 0.8653(13) 0.012(2) 1.
O4 O2- 4 c 0.1977(6) 0.1977(6) 1.1113(18) 0.013(2) 1.
O5 O2- 4 c 0.3042(6) 0.3042(6) 0.7552(16) 0.008(2) 1.
O6 O2- 8 d 0.4325(7) 0.2604(7) 1.1175(14) 0.019(2) 1.
#End of TTdata_291589-ICSD