
#(C) 2020 by FIZ Karlsruhe - Leibniz Institute for Information Infrastructure.  All rights reserved.
data_29406-ICSD
_database_code_ICSD 29406
_audit_creation_date 1984-12-31
_audit_update_record 2015-08-01
_chemical_name_common 'Rubidium tetrahydroxopentaborate dihydrate'
_chemical_formula_structural 'Rb B5 O6 (O H)4 (H2 O)2'
_chemical_formula_sum 'H8 B5 O12 Rb1'
_chemical_name_structure_type KB5O8(H2O)4
_exptl_crystal_density_diffrn 1.95
_diffrn_ambient_temperature 295.
_citation_title 'Rubidium Pentaborate Tetrahydrate, Rb (B5 O6 (O H)4) (H2 O)2'
loop_
_citation_id
_citation_journal_full
_citation_year
_citation_journal_volume
_citation_page_first
_citation_page_last
_citation_journal_id_ASTM
primary 'Acta Crystallographica, Section C: Crystal Structure Communications'
1984 40 217 220 ACSCEE
loop_
_citation_author_citation_id
_citation_author_name
primary 'Behm, H.'
_cell_length_a 11.302(2)
_cell_length_b 10.962(2)
_cell_length_c 9.335(1)
_cell_angle_alpha 90.
_cell_angle_beta 90.
_cell_angle_gamma 90.
_cell_volume 1156.54
_cell_formula_units_Z 4
_space_group_name_H-M_alt 'A b a 2'
_space_group_IT_number 41
loop_
_space_group_symop_id
_space_group_symop_operation_xyz
1 'x+1/2, -y+1/2, z'
2 '-x+1/2, y+1/2, z'
3 '-x, -y, z'
4 'x, y, z'
5 'x+1/2, -y, z+1/2'
6 '-x+1/2, y, z+1/2'
7 '-x, -y+1/2, z+1/2'
8 'x, y+1/2, z+1/2'
loop_
_atom_type_symbol
_atom_type_oxidation_number
Rb1+ 1
B3+ 3
O2- -2
H1+ 1
loop_
_atom_site_label
_atom_site_type_symbol
_atom_site_symmetry_multiplicity
_atom_site_Wyckoff_symbol
_atom_site_fract_x
_atom_site_fract_y
_atom_site_fract_z
_atom_site_U_iso_or_equiv
_atom_site_occupancy
Rb1 Rb1+ 4 a 0 0 0 . 1.
B1 B3+ 4 a 0 0 0.4051(3) . 1.
B2 B3+ 8 b 0.1850(2) 0.0941(2) 0.3153(2) . 1.
B3 B3+ 8 b 0.1994(2) 0.9420(2) 0.4940(4) . 1.
O1 O2- 8 b 0.0659(1) 0.0852(1) 0.3126(1) . 1.
O2 O2- 8 b 0.0806(1) 0.9293(1) 0.4973(2) . 1.
O3 O2- 8 b 0.2530(1) 0.0250(1) 0.4047(2) . 1.
O4 O2- 8 b 0.2389(1) 0.1748(1) 0.2260(2) . 1.
O5 O2- 8 b 0.2751(1) 0.8795(2) 0.5775(2) . 1.
O6 O2- 8 b 0.0230(1) 0.1732(1) 0.7488(2) . 1.
H1 H1+ 8 b 1.0088(18) 0.2592(34) 0.7488(43) 0.047(6) 1.
H2 H1+ 8 b 0.9904(17) 0.1405(21) 0.6812(29) 0.041(7) 1.
H3 H1+ 8 b 0.2009(18) 0.1687(18) 0.7308(33) 0.047(8) 1.
H4 H1+ 8 b 0.2529(23) 0.3322(18) 0.1108(26) 0.046(8) 1.
loop_
_atom_site_aniso_label
_atom_site_aniso_type_symbol
_atom_site_aniso_U_11
_atom_site_aniso_U_22
_atom_site_aniso_U_33
_atom_site_aniso_U_12
_atom_site_aniso_U_13
_atom_site_aniso_U_23
Rb1 Rb1+ 0.019(1) 0.059(1) 0.032(1) 0.004(1) 0 0
B1 B3+ 0.017(1) 0.025(1) 0.026(1) -.004(2) 0 0
B2 B3+ 0.022(1) 0.023(1) 0.026(1) 0.001(1) 0.002(1) 0.004(1)
B3 B3+ 0.021(1) 0.029(1) 0.031(1) -.001(1) -.002(2) 0.008(2)
O1 O2- 0.016(1) 0.026(1) 0.032(1) 0.001(1) -.001(1) 0.010(1)
O2 O2- 0.017(1) 0.033(1) 0.031(1) -.003(1) 0.000(1) 0.013(1)
O3 O2- 0.015(1) 0.036(1) 0.041(1) -.004(1) -.002(1) 0.021(1)
O4 O2- 0.020(1) 0.044(1) 0.056(1) -.001(1) 0.000(1) 0.025(1)
O5 O2- 0.023(1) 0.057(1) 0.069(1) -.008(1) -.008(1) 0.047(1)
O6 O2- 0.027(1) 0.034(1) 0.047(1) 0.006(1) -.010(1) -.006(1)
#End of TTdata_29406-ICSD