
#(C) 2020 by FIZ Karlsruhe - Leibniz Institute for Information Infrastructure.  All rights reserved.
data_30411-ICSD
_database_code_ICSD 30411
_audit_creation_date 1986-09-30
_chemical_name_common 'Antimony fluoride'
_chemical_formula_structural 'Sb F3'
_chemical_formula_sum 'F3 Sb1'
_exptl_crystal_density_diffrn 4.42
_citation_title 'X-Ray Analysis of Antimony trifluoride'
loop_
_citation_id
_citation_journal_full
_citation_year
_citation_journal_volume
_citation_page_first
_citation_page_last
_citation_journal_id_ASTM
primary 'Arkiv foer Kemi, Mineralogi och Geologi' 1943 17 1 7 AKMGAE
loop_
_citation_author_citation_id
_citation_author_name
primary 'Bystroem, A.'
primary 'Westgren, A.'
_cell_length_a 7.25
_cell_length_b 7.49
_cell_length_c 4.95
_cell_angle_alpha 90.
_cell_angle_beta 90.
_cell_angle_gamma 90.
_cell_volume 268.8
_cell_formula_units_Z 4
_space_group_name_H-M_alt 'A m a 2'
_space_group_IT_number 40
loop_
_space_group_symop_id
_space_group_symop_operation_xyz
1 'x+1/2, -y, z'
2 '-x+1/2, y, z'
3 '-x, -y, z'
4 'x, y, z'
5 'x+1/2, -y+1/2, z+1/2'
6 '-x+1/2, y+1/2, z+1/2'
7 '-x, -y+1/2, z+1/2'
8 'x, y+1/2, z+1/2'
loop_
_atom_type_symbol
_atom_type_oxidation_number
Sb3+ 3
F1- -1
loop_
_atom_site_label
_atom_site_type_symbol
_atom_site_symmetry_multiplicity
_atom_site_Wyckoff_symbol
_atom_site_fract_x
_atom_site_fract_y
_atom_site_fract_z
_atom_site_B_iso_or_equiv
_atom_site_occupancy
Sb1 Sb3+ 4 b 0.25 0.214 0 . 1.
F1 F1- 8 c 0.069 0.286 0.286 . 1.
F2 F1- 4 b 0.25 0.467 -.161 . 1.
#End of TTdata_30411-ICSD