
#(C) 2020 by FIZ Karlsruhe - Leibniz Institute for Information Infrastructure.  All rights reserved.
data_30674-ICSD
_database_code_ICSD 30674
_audit_creation_date 1984-12-31
_audit_update_record 2015-02-01
_chemical_name_common 'Barium hexayttrium trisilicohexaborate difluoride'
_chemical_formula_structural 'Ba Y6 (Si3 B6 O24) F2'
_chemical_formula_sum 'B6 Ba1 F2 O24 Si3 Y6'
_chemical_name_mineral Cappelenite-(Y)
_exptl_crystal_density_diffrn 4.47
_citation_title

;
Crystal structure of cappelenite, Ba(Y,RE)6 (Si3 B6 O24) F2: a silicoborate
sheet structure
;
loop_
_citation_id
_citation_journal_full
_citation_year
_citation_journal_volume
_citation_page_first
_citation_page_last
_citation_journal_id_ASTM
primary 'American Mineralogist' 1984 69 190 195 AMMIAY
loop_
_citation_author_citation_id
_citation_author_name
primary 'Shen, J.'
primary 'Moore, P.B.'
_cell_length_a 10.67(2)
_cell_length_b 10.67(2)
_cell_length_c 4.680(2)
_cell_angle_alpha 90.
_cell_angle_beta 90.
_cell_angle_gamma 120.
_cell_volume 461.43
_cell_formula_units_Z 1
_space_group_name_H-M_alt 'P 3'
_space_group_IT_number 143
loop_
_space_group_symop_id
_space_group_symop_operation_xyz
1 '-x+y, -x, z'
2 '-y, x-y, z'
3 'x, y, z'
loop_
_atom_type_symbol
_atom_type_oxidation_number
Ba2+ 2
Y3+ 3
Si4+ 4
B3+ 3
O2- -2
F1- -1
loop_
_atom_site_label
_atom_site_type_symbol
_atom_site_symmetry_multiplicity
_atom_site_Wyckoff_symbol
_atom_site_fract_x
_atom_site_fract_y
_atom_site_fract_z
_atom_site_B_iso_or_equiv
_atom_site_occupancy
Ba1 Ba2+ 1 a 0 0 0 . 1.
Y1 Y3+ 3 d 0.2155(2) 0.4311(2) 0.9401(6) . 1.
Y2 Y3+ 3 d 0.4320(2) 0.2161(2) 0.9722(9) . 1.
Si1 Si4+ 3 d 0.0088(7) 0.5049(7) 0.4100(14) . 1.
B1 B3+ 3 d 0.255(2) 0.255(2) 0.474(4) . 1.
B2 B3+ 3 d 0.003(3) 0.254(2) 0.475(4) . 1.
O1 O2- 3 d 0.371(2) 0.387(2) 0.630(3) . 1.
O2 O2- 3 d 0.018(2) 0.387(2) 0.631(3) . 1.
O3 O2- 3 d 0.572(2) 0.428(1) 0.236(3) . 1.
O4 O2- 3 d 0.426(2) 0.573(2) 0.197(3) . 1.
O5 O2- 3 d 0.281(2) 0.140(2) 0.600(3) . 1.
O6 O2- 3 d 0.112(2) 0.227(2) 0.619(3) . 1.
O7 O2- 3 d 0.260(1) 0.262(1) 0.186(3) . 1.
O8 O2- 3 d 0.001(2) 0.265(2) 0.188(3) . 1.
F1 F1- 1 b 0.3333 0.6667 0.735(4) 1.14(29) 1.
F2 F1- 1 c 0.6667 0.3333 0.783(4) 0.94(28) 1.
loop_
_atom_site_aniso_label
_atom_site_aniso_type_symbol
_atom_site_aniso_U_11
_atom_site_aniso_U_22
_atom_site_aniso_U_33
_atom_site_aniso_U_12
_atom_site_aniso_U_13
_atom_site_aniso_U_23
Ba1 Ba2+ 0.0167(5) 0.0167(5) 0.0194(14) 0.0084(3) 0 0
Y1 Y3+ 0.0012(6) 0.0039(6) 0.0107(6) 0.0014(6) 0.0001(4) -.0021(5)
Y2 Y3+ 0.0040(8) 0.0088(9) 0.0173(7) 0.0011(7) -.0056(7) -.0049(7)
Si1 Si4+ 0.0116(21) 0.0074(19) 0.0217(27) 0.0045(17) 0.0017(21) 0.0031(20)
B1 B3+ 0.0128(45) 0.0031(38) 0.0245(51) 0.0055(34) 0.0032(43) 0.0002(40)
B2 B3+ 0.0320(58) 0.0041(46) 0.0151(52) 0.0034(48) -.0089(52) -.0070(46)
O1 O2- 0.0149(43) 0.0234(46) 0.0032(39) 0.0078(38) 0.0062(36) 0.0020(38)
O2 O2- 0.0316(50) 0.0230(47) 0.0156(47) 0.0156(41) -.0093(44) 0.0044(42)
O3 O2- 0.0179(44) 0.0018(37) 0.0129(44) 0.0021(34) -.0003(29) -.0026(35)
O4 O2- 0.0070(39) 0.0106(41) 0.0181(45) 0.0025(34) -.0037(37) -.0039(39)
O5 O2- 0.0125(41) 0.0190(44) 0.0209(47) 0.0115(36) 0.0039(40) 0.0020(41)
O6 O2- 0.0229(46) 0.0244(47) 0.0288(51) 0.0180(39) -.0035(44) 0.0025(44)
O7 O2- 0.0041(36) 0.0079(40) 0.0247(46) 0.0009(31) -.0038(36) -.0073(38)
O8 O2- 0.0109(42) 0.0167(44) 0.0192(46) 0.0069(36) 0.0088(39) 0.0022(40)
#End of TTdata_30674-ICSD