
#(C) 2020 by FIZ Karlsruhe - Leibniz Institute for Information Infrastructure.  All rights reserved.
data_30885-ICSD
_database_code_ICSD 30885
_audit_creation_date 1985-05-29
_audit_update_record 2009-08-01
_chemical_name_common 'Barium diborate - alpha'
_chemical_formula_structural 'Ba (B2 O4)'
_chemical_formula_sum 'B2 Ba1 O4'
_exptl_crystal_density_diffrn 3.86
_citation_title 'Crystal structure of the low-temperature form of Ba B2 O4'
loop_
_citation_id
_citation_journal_full
_citation_year
_citation_journal_volume
_citation_page_first
_citation_page_last
_citation_journal_id_ASTM
primary 'Zeitschrift fuer Kristallographie' 1984 168 109 112 ZEKRDZ
loop_
_citation_author_citation_id
_citation_author_name
primary 'Froehlich, R.'
_cell_length_a 8.380(4)
_cell_length_b 8.380(4)
_cell_length_c 8.380(4)
_cell_angle_alpha 96.65(4)
_cell_angle_beta 96.65(4)
_cell_angle_gamma 96.65(4)
_cell_volume 575.59
_cell_formula_units_Z 6
_space_group_name_H-M_alt 'R 3 c R'
_space_group_IT_number 161
loop_
_space_group_symop_id
_space_group_symop_operation_xyz
1 'z+1/2, y+1/2, x+1/2'
2 'z, x, y'
3 'x+1/2, z+1/2, y+1/2'
4 'y, z, x'
5 'y+1/2, x+1/2, z+1/2'
6 'x, y, z'
loop_
_atom_type_symbol
_atom_type_oxidation_number
Ba2+ 2
O2- -2
B3+ 3
O2- -2
B3+ 3
O2- -2
loop_
_atom_site_label
_atom_site_type_symbol
_atom_site_symmetry_multiplicity
_atom_site_Wyckoff_symbol
_atom_site_fract_x
_atom_site_fract_y
_atom_site_fract_z
_atom_site_U_iso_or_equiv
_atom_site_occupancy
Ba1 Ba2+ 6 b 0.7375 0.37327 0.01891 0.0178(3) 1.
O1 O2- 6 b 0.4582(10) 0.625(1) 0.4149(10) 0.025(3) 1.
B1 B3+ 6 b 0.5427(16) 0.3732(16) 0.5887(16) 0.020(4) 1.
O2 O2- 6 b 0.6707(9) 0.5944(9) 0.2584(8) 0.025(2) 1.
O3 O2- 6 b 0.3591(10) 0.1441(10) 0.2197(9) 0.023(3) 1.
B2 B3+ 6 b 0.2639(18) 0.1186(18) 0.3403(15) 0.024(4) 1.
O4 O2- 6 b 0.7788(9) 0.9264(8) 0.4953(9) 0.025(2) 1.
#End of TTdata_30885-ICSD