
#(C) 2020 by FIZ Karlsruhe - Leibniz Institute for Information Infrastructure.  All rights reserved.
data_32659-ICSD
_database_code_ICSD 32659
_audit_creation_date 1982-12-31
_audit_update_record 2013-08-01
_chemical_name_common 'duo-disilver fluoride iodide hydrate'
_chemical_formula_structural 'Ag2 I F H2 O'
_chemical_formula_sum 'H2 Ag2 F1 I1 O1'
_chemical_name_structure_type Ag2IFH2O
_exptl_crystal_density_diffrn 5.37
_citation_title
'The crystal structure of Ag2 I F H2 O - a compound containing Ag2 (2+) pairs'
loop_
_citation_id
_citation_journal_full
_citation_year
_citation_journal_volume
_citation_page_first
_citation_page_last
_citation_journal_id_ASTM
primary 'Journal of Solid State Chemistry' 1982 42 1 10 JSSCBI
loop_
_citation_author_citation_id
_citation_author_name
primary 'Persson, K.'
primary 'Holmberg, B.'
_cell_length_a 4.7206(5)
_cell_length_b 7.8117(8)
_cell_length_c 6.3747(4)
_cell_angle_alpha 90.
_cell_angle_beta 93.345(9)
_cell_angle_gamma 90.
_cell_volume 234.67
_cell_formula_units_Z 2
_space_group_name_H-M_alt 'P 1 21 1'
_space_group_IT_number 4
loop_
_space_group_symop_id
_space_group_symop_operation_xyz
1 '-x, y+1/2, -z'
2 'x, y, z'
loop_
_atom_type_symbol
_atom_type_oxidation_number
Ag1+ 1
I1- -1
F1- -1
O2- -2
H1+ 1
loop_
_atom_site_label
_atom_site_type_symbol
_atom_site_symmetry_multiplicity
_atom_site_Wyckoff_symbol
_atom_site_fract_x
_atom_site_fract_y
_atom_site_fract_z
_atom_site_B_iso_or_equiv
_atom_site_occupancy
Ag1 Ag1+ 2 a 0.04256(33) 0 0.28550(23) 4.06 1.
Ag2 Ag1+ 2 a 0.01611(32) 0.55975(21) 0.28428(22) 4. 1.
I1 I1- 2 a 0.32599(10) 0.28561(24) 0.49781(9) 2.31 1.
F1 F1- 2 a -.2814(25) 0.4472(15) 0.0075(20) 3.3 1.
O1 O2- 2 a -.2694(24) 0.1223(16) 0.0122(25) 2.8 1.
#End of TTdata_32659-ICSD