
#(C) 2020 by FIZ Karlsruhe - Leibniz Institute for Information Infrastructure.  All rights reserved.
data_33238-ICSD
_database_code_ICSD 33238
_audit_creation_date 1983-12-31
_chemical_name_common 'Barium tetragallium sulfide'
_chemical_formula_structural 'Ba Ga4 S7'
_chemical_formula_sum 'Ba1 Ga4 S7'
_chemical_name_structure_type SrB4O7
_exptl_crystal_density_diffrn 3.89
_citation_title 'Zur Kenntnis von Ba Al4 S7 und Ba Ga4 S7'
loop_
_citation_id
_citation_journal_full
_citation_year
_citation_journal_volume
_citation_page_first
_citation_page_last
_citation_journal_id_ASTM
primary 'Revue de Chimie Minerale' 1983 20 329 337 RVCMA8
loop_
_citation_author_citation_id
_citation_author_name
primary 'Eisenmann, B.'
primary 'Jakowski, M.'
primary 'Schaefer, H.'
_cell_length_a 14.774(4)
_cell_length_b 6.237(2)
_cell_length_c 5.934(2)
_cell_angle_alpha 90.
_cell_angle_beta 90.
_cell_angle_gamma 90.
_cell_volume 546.79
_cell_formula_units_Z 2
_space_group_name_H-M_alt 'P m n 21'
_space_group_IT_number 31
loop_
_space_group_symop_id
_space_group_symop_operation_xyz
1 'x+1/2, -y, z+1/2'
2 '-x+1/2, -y, z+1/2'
3 '-x, y, z'
4 'x, y, z'
loop_
_atom_type_symbol
_atom_type_oxidation_number
Ba2+ 2
Ga3+ 3
S2- -2
loop_
_atom_site_label
_atom_site_type_symbol
_atom_site_symmetry_multiplicity
_atom_site_Wyckoff_symbol
_atom_site_fract_x
_atom_site_fract_y
_atom_site_fract_z
_atom_site_B_iso_or_equiv
_atom_site_occupancy
Ba1 Ba2+ 2 a 0 0.3314(4) 0 . 1.
Ga1 Ga3+ 4 b 0.3805(2) 0.1732(4) 0.8972(6) . 1.
Ga2 Ga3+ 4 b 0.2514(2) 0.6879(4) 0.9137(7) . 1.
S1 S2- 4 b 0.1145(4) 0.8081(10) 0.0188(15) . 1.
S2 S2- 4 b 0.3877(2) 0.8286(9) 0.0090(15) . 1.
S3 S2- 4 b 0.2460(5) 0.3301(9) 0.0235(13) . 1.
S4 S2- 2 a 0 0.6286(12) 0.5196(17) . 1.
loop_
_atom_site_aniso_label
_atom_site_aniso_type_symbol
_atom_site_aniso_U_11
_atom_site_aniso_U_22
_atom_site_aniso_U_33
_atom_site_aniso_U_12
_atom_site_aniso_U_13
_atom_site_aniso_U_23
Ba1 Ba2+ 0.0203(11) 0.0143(10) 0.0140(14) 0 0 -.0014(12)
Ga1 Ga3+ 0.0072(11) 0.0070(12) 0.0056(16) 0.0010(8) 0.0005(12) 0.0021(12)
Ga2 Ga3+ 0.0086(10) 0.0065(9) 0.0060(11) -.0045(9) 0.0021(11) -.0004(12)
S1 S2- 0.0109(26) 0.0188(29) 0.0081(30) 0.0071(22) 0.0024(25) 0.0055(30)
S2 S2- 0.0126(25) 0.0082(23) 0.0152(29) 0.0024(20) -.0010(29) -.0027(29)
S3 S2- 0.0170(26) 0.0048(22) 0.0086(28) -.0017(21) -.0017(25) -.0002(25)
S4 S2- 0.0106(21) 0.0041(29) 0.0046(35) 0 0 0.0005(32)
#End of TTdata_33238-ICSD