
#(C) 2020 by FIZ Karlsruhe - Leibniz Institute for Information Infrastructure.  All rights reserved.
data_33937-ICSD
_database_code_ICSD 33937
_audit_creation_date 1992-01-20
_audit_update_record 2007-08-01
_chemical_name_common 'Ammonium dihydrogenphosphate(V)'
_chemical_formula_structural '(N H4) (H2 P O4)'
_chemical_formula_sum 'H6 N1 O4 P1'
_chemical_name_structure_type H2KPO4
_exptl_crystal_density_diffrn 1.81
_diffrn_ambient_temperature 157.5
_citation_title

;
Deuteration and pressure effects on the crystal structure of paraelectric (N
H4) (H2 P O4)
;
loop_
_citation_id
_citation_journal_full
_citation_year
_citation_journal_volume
_citation_page_first
_citation_page_last
_citation_journal_id_ASTM
primary 'Zeitschrift fuer Kristallographie' 1991 195 241 249 ZEKRDZ
loop_
_citation_author_citation_id
_citation_author_name
primary 'Piltz, R.O.'
primary 'McMahon, M.I.'
primary 'Nelmes, R.J.'
_cell_length_a 7.471(1)
_cell_length_b 7.471(1)
_cell_length_c 7.551(2)
_cell_angle_alpha 90.
_cell_angle_beta 90.
_cell_angle_gamma 90.
_cell_volume 421.47
_cell_formula_units_Z 4
_space_group_name_H-M_alt 'I -4 2 d'
_space_group_IT_number 122
loop_
_space_group_symop_id
_space_group_symop_operation_xyz
1 '-y, -x+1/2, z+1/4'
2 'y, -x, -z'
3 'y, x+1/2, z+1/4'
4 '-y, x, -z'
5 'x, -y+1/2, -z+1/4'
6 '-x, -y, z'
7 '-x, y+1/2, -z+1/4'
8 'x, y, z'
9 '-y+1/2, -x, z+3/4'
10 'y+1/2, -x+1/2, -z+1/2'
11 'y+1/2, x, z+3/4'
12 '-y+1/2, x+1/2, -z+1/2'
13 'x+1/2, -y, -z+3/4'
14 '-x+1/2, -y+1/2, z+1/2'
15 '-x+1/2, y, -z+3/4'
16 'x+1/2, y+1/2, z+1/2'
loop_
_atom_type_symbol
_atom_type_oxidation_number
P5+ 5
N3- -3
O2- -2
H1+ 1
loop_
_atom_site_label
_atom_site_type_symbol
_atom_site_symmetry_multiplicity
_atom_site_Wyckoff_symbol
_atom_site_fract_x
_atom_site_fract_y
_atom_site_fract_z
_atom_site_B_iso_or_equiv
_atom_site_occupancy
P1 P5+ 4 a 0 0 0 . 1.
N1 N3- 4 b 0 0 0.5 . 1.
O1 O2- 16 e 0.1479(1) 0.0846(1) 0.1152(1) . 1.
H1 H1+ 16 e 0.1099(7) 0.0159(6) 0.5758(4) . 1.
H2 H1+ 16 e 0.1446(4) 0.2268(3) 0.1194(7) . 0.5
loop_
_atom_site_aniso_label
_atom_site_aniso_type_symbol
_atom_site_aniso_U_11
_atom_site_aniso_U_22
_atom_site_aniso_U_33
_atom_site_aniso_U_12
_atom_site_aniso_U_13
_atom_site_aniso_U_23
P1 P5+ 0.0064(2) 0.0064(2) 0.0112(4) 0 0 0
N1 N3- 0.0160(2) 0.0160(2) 0.0098(3) 0 0 0
O1 O2- 0.0105(2) 0.0091(2) 0.0159(3) 0.0016(1) -.0053(2) -.0034(2)
H1 H1+ 0.0516(10) 0.0302(7) 0.0407(10) 0.0020(9) -.029(1) -.0070(12)
H2 H1+ 0.0193(8) 0.0203(12) 0.0215(11) -.0001(5) 0.003(3) -.0039(16)
#End of TTdata_33937-ICSD