
#(C) 2020 by FIZ Karlsruhe - Leibniz Institute for Information Infrastructure.  All rights reserved.
data_34362-ICSD
_database_code_ICSD 34362
_audit_creation_date 1980-01-01
_audit_update_record 1987-05-21
_chemical_name_common 'Dilithium zinc germanate'
_chemical_formula_structural 'Li2 Zn Ge O4'
_chemical_formula_sum 'Ge1 Li2 O4 Zn1'
_chemical_name_structure_type Li2BeSiO4
_exptl_crystal_density_diffrn 4.08
_citation_title 'Die Kristallstruktur der Verbindung Li2 Zn Ge O4'
loop_
_citation_id
_citation_journal_full
_citation_year
_citation_journal_volume
_citation_page_first
_citation_page_last
_citation_journal_id_ASTM
primary 'Monatshefte fuer Chemie' 1976 107 921 927 MOCMB7
loop_
_citation_author_citation_id
_citation_author_name
primary 'Plattner, E.'
primary 'Voellenkle, H.'
primary 'Wittmann, A.'
_cell_length_a 6.4
_cell_length_b 5.45
_cell_length_c 5.04
_cell_angle_alpha 90.
_cell_angle_beta 90.2
_cell_angle_gamma 90.
_cell_volume 175.79
_cell_formula_units_Z 2
_space_group_name_H-M_alt 'P 1 n 1'
_space_group_IT_number 7
loop_
_space_group_symop_id
_space_group_symop_operation_xyz
1 'x+1/2, -y, z+1/2'
2 'x, y, z'
loop_
_atom_type_symbol
_atom_type_oxidation_number
Ge4+ 4
Zn2+ 2
Li1+ 1
O2- -2
loop_
_atom_site_label
_atom_site_type_symbol
_atom_site_symmetry_multiplicity
_atom_site_Wyckoff_symbol
_atom_site_fract_x
_atom_site_fract_y
_atom_site_fract_z
_atom_site_B_iso_or_equiv
_atom_site_occupancy
Ge1 Ge4+ 2 a 0 0.176(3) 0 0.8 1.
Zn1 Zn2+ 2 a 0.253(1) 0.340(3) 0.496(1) 0.7 1.
Li1 Li1+ 2 a 0.5 0.133 0 0.6 1.
Li2 Li1+ 2 a 0.75 0.317 0.5 0.9 1.
O1 O2- 2 a 0.496(7) 0.134(9) 0.421(9) 1.4 1.
O2 O2- 2 a 0.268(4) 0.672(6) 0.382(6) 0.2 1.
O3 O2- 2 a 0.997(7) 0.187(1) 0.348(9) 2.5 1.
O4 O2- 2 a 0.235(4) 0.315(6) 0.880(6) 0.1 1.
#End of TTdata_34362-ICSD