
#(C) 2020 by FIZ Karlsruhe - Leibniz Institute for Information Infrastructure.  All rights reserved.
data_34580-ICSD
_database_code_ICSD 34580
_audit_creation_date 1980-12-31
_audit_update_record 2015-02-01
_chemical_name_common 'Potassium aluminium borate silicate chloride hydrate *'
_chemical_formula_structural 'K6 Al4 Si6 B H4 O24 Cl'
_chemical_formula_sum 'H4 Al4 B1 Cl1 K6 O24 Si6'
_chemical_name_mineral Kalborsite
_exptl_crystal_density_diffrn 2.48
_citation_title 'Crystal structure of kalborsite'
loop_
_citation_id
_citation_journal_full
_citation_year
_citation_journal_volume
_citation_page_first
_citation_page_last
_citation_journal_id_ASTM
primary 'Doklady Akademii Nauk SSSR' 1980 252 611 615 DANKAS
loop_
_citation_author_citation_id
_citation_author_name
primary 'Malinovskii, Yu.A.'
primary 'Belov, N.V.'
_cell_length_a 9.851(5)
_cell_length_b 9.851(5)
_cell_length_c 13.060(5)
_cell_angle_alpha 90.
_cell_angle_beta 90.
_cell_angle_gamma 90.
_cell_volume 1267.37
_cell_formula_units_Z 2
_space_group_name_H-M_alt 'P -4 21 c'
_space_group_IT_number 114
loop_
_space_group_symop_id
_space_group_symop_operation_xyz
1 'y+1/2, x+1/2, z+1/2'
2 'y, -x, -z'
3 '-y+1/2, -x+1/2, z+1/2'
4 '-y, x, -z'
5 'x+1/2, -y+1/2, -z+1/2'
6 '-x, -y, z'
7 '-x+1/2, y+1/2, -z+1/2'
8 'x, y, z'
loop_
_atom_type_symbol
_atom_type_oxidation_number
K1+ 1
Si4+ 4
Al3+ 3
B3+ 3
O2- -2
Cl1- -1
H1+ 1
loop_
_atom_site_label
_atom_site_type_symbol
_atom_site_symmetry_multiplicity
_atom_site_Wyckoff_symbol
_atom_site_fract_x
_atom_site_fract_y
_atom_site_fract_z
_atom_site_B_iso_or_equiv
_atom_site_occupancy
K1 K1+ 4 c 0 0 0.2479(3) . 1.
K2 K1+ 8 e 0.2196(5) 0.2182(5) 0.0639(2) . 1.
Si1 Si4+ 8 e 0.3860(6) 0.1587(6) 0.3067(3) . 1.
Si2 Si4+ 4 d 0 0.5 0.0057(5) . 1.
Al1 Al3+ 8 e 0.1549(6) 0.3901(7) 0.3134(3) . 1.
B1 B3+ 2 b 0 0 0.5 . 1.
O1 O2- 8 e 0.3026(14) 0.2998(12) 0.3163(5) . 1.
O2 O2- 8 e 0.0905(14) 0.4027(14) 0.4384(6) . 1.
O3 O2- 8 e 0.4017(13) 0.0974(12) 0.4222(6) . 1.
O4 O2- 8 e 0.3113(12) 0.0484(11) 0.2325(8) . 1.
O5 O2- 8 e 0.0431(15) 0.3051(15) 0.2302(10) . 1.
O6 O2- 8 e 0.4446(13) 0.3936(12) 0.0625(9) . 1.
Cl1 Cl1- 2 a 0 0 0 . 1.
H1 H1+ 8 e 0.051 0.122 0.564 . 1.
loop_
_atom_site_aniso_label
_atom_site_aniso_type_symbol
_atom_site_aniso_B_11
_atom_site_aniso_B_22
_atom_site_aniso_B_33
_atom_site_aniso_B_12
_atom_site_aniso_B_13
_atom_site_aniso_B_23
K1 K1+ 1.80(58) 1.67(59) 1.34(9) 0.48(11) 0 0
K2 K1+ 0.97(20) 2.58(28) 1.41(7) 0.13(6) 0.20(12) 0.08(14)
Si1 Si4+ 0.27(20) 0.88(24) 0.73(11) -.18(19) 0.13(13) -.12(13)
Si2 Si4+ 0.69(11) 0.41(10) 0.57(12) 0.32(30) 0 0
Al1 Al3+ 0.26(22) 0.59(23) 0.52(11) 0.25(20) 0.24(12) -.19(13)
B1 B3+ 1.10(83) 0.99 1.14(72) 0 0 0
O1 O2- 2.12(57) 0.18(38) 1.64(23) 0.08(16) -.55(41) 0.26(33)
O2 O2- 2.70(69) 2.42(64) 0.57(21) 0.87(45) 0.96(35) -.24(35)
O3 O2- 1.58(48) 1.41(45) 0.77(22) 1.20(33) 0.24(30) 0.67(30)
O4 O2- 0.65(37) 0.63(42) 1.15(31) 0.30(35) -.26(30) -.81(32)
O5 O2- 1.93(78) 1.49(68) 2.20(44) -.37(56) 0.16(51) -.48(49)
O6 O2- 2.26(42) 1.22(46) 3.33(41) 1.19(41) -.07(39) -.45(39)
Cl1 Cl1- 1.56(22) 1.61 1.57(17) 0 0 0
#End of TTdata_34580-ICSD