
#(C) 2020 by FIZ Karlsruhe - Leibniz Institute for Information Infrastructure.  All rights reserved.
data_36404-ICSD
_database_code_ICSD 36404
_audit_creation_date 1980-01-01
_audit_update_record 2007-08-01
_chemical_name_common 'Thallium catena-borate'
_chemical_formula_structural 'Tl (B O2)'
_chemical_formula_sum 'B1 O2 Tl1'
_exptl_crystal_density_diffrn 6.45
_citation_title 'Structure cristalline de Tl B O2'
loop_
_citation_id
_citation_journal_full
_citation_year
_citation_journal_volume
_citation_page_first
_citation_page_last
_citation_journal_id_ASTM
primary 'Revue de Chimie Minerale' 1978 15 223 231 RVCMA8
loop_
_citation_author_citation_id
_citation_author_name
primary 'Touboul, M.'
primary 'Amoussou, D.'
_cell_length_a 7.380(6)
_cell_length_b 7.380(6)
_cell_length_c 9.350(8)
_cell_angle_alpha 90.
_cell_angle_beta 90.
_cell_angle_gamma 90.
_cell_volume 509.24
_cell_formula_units_Z 8
_space_group_name_H-M_alt 'P 41'
_space_group_IT_number 76
loop_
_space_group_symop_id
_space_group_symop_operation_xyz
1 'y, -x, z+3/4'
2 '-y, x, z+1/4'
3 '-x, -y, z+1/2'
4 'x, y, z'
loop_
_atom_type_symbol
_atom_type_oxidation_number
Tl1+ 1
O2- -2
B3+ 3
loop_
_atom_site_label
_atom_site_type_symbol
_atom_site_symmetry_multiplicity
_atom_site_Wyckoff_symbol
_atom_site_fract_x
_atom_site_fract_y
_atom_site_fract_z
_atom_site_B_iso_or_equiv
_atom_site_occupancy
Tl1 Tl1+ 4 a 0.2618(3) 0.2634(3) 0 . 1.
Tl2 Tl1+ 4 a 0.2611(3) 0.0225(3) 0.4075(4) . 1.
O1 O2- 4 a 0.213(5) 0.501(6) 0.292(4) . 1.
O2 O2- 4 a 0.515(6) 0.460(5) 0.377(4) . 1.
O3 O2- 4 a 0.257(5) 0.426(7) 0.529(5) . 1.
O4 O2- 4 a -.042(5) 0.454(6) 0.441(4) . 1.
B1 B3+ 4 a 0.135(7) 0.455(6) 0.425(6) . 1.
B2 B3+ 4 a 0.461(6) 0.402(6) 0.514(6) . 1.
#End of TTdata_36404-ICSD