
#(C) 2020 by FIZ Karlsruhe - Leibniz Institute for Information Infrastructure.  All rights reserved.
data_38029-ICSD
_database_code_ICSD 38029
_audit_creation_date 1980-12-31
_audit_update_record 2006-04-01
_chemical_name_common 'Icosaaluminium tetraboron oxide'
_chemical_formula_structural '(Al2 O3)10 (B2 O3)2'
_chemical_formula_sum 'Al20 B4 O36'
_chemical_name_structure_type Al5(BO3)O6
_exptl_crystal_density_diffrn 2.94
_citation_title 'Crystal structure of boroaluminate, 9 Al2 O3 * 2 B2 O3'
loop_
_citation_id
_citation_journal_full
_citation_year
_citation_journal_volume
_citation_page_first
_citation_page_last
_citation_journal_id_ASTM
primary 'Journal of the Ceramic Society of Japan' 1980 88 77 84 JCSJEW
loop_
_citation_author_citation_id
_citation_author_name
primary 'Ihara, M.'
primary 'Imai, K.'
primary 'Fukunaga, J.'
primary 'Yoshida, N.'
_cell_length_a 5.682(13)
_cell_length_b 14.973(34)
_cell_length_c 7.692(17)
_cell_angle_alpha 90.
_cell_angle_beta 90.
_cell_angle_gamma 90.
_cell_volume 654.41
_cell_formula_units_Z 1
_space_group_name_H-M_alt 'C m c 21'
_space_group_IT_number 36
loop_
_space_group_symop_id
_space_group_symop_operation_xyz
1 'x, -y, z+1/2'
2 '-x, -y, z+1/2'
3 '-x, y, z'
4 'x, y, z'
5 'x+1/2, -y+1/2, z+1/2'
6 '-x+1/2, -y+1/2, z+1/2'
7 '-x+1/2, y+1/2, z'
8 'x+1/2, y+1/2, z'
loop_
_atom_type_symbol
_atom_type_oxidation_number
B3+ 3
Al3+ 3
O2- -2
loop_
_atom_site_label
_atom_site_type_symbol
_atom_site_symmetry_multiplicity
_atom_site_Wyckoff_symbol
_atom_site_fract_x
_atom_site_fract_y
_atom_site_fract_z
_atom_site_B_iso_or_equiv
_atom_site_occupancy
B1 B3+ 4 a 0 0.020(26) 0.226(28) 1.5 1.
Al1 Al3+ 8 b 0.249(5) 0.383(4) 0 1. 1.
Al2 Al3+ 4 a 0.5 0.245(7) 0.186(9) 1.4 1.
Al3 Al3+ 4 a 0.5 0.056(7) 0.182(9) 1.2 1.
Al4 Al3+ 4 a 0 0.296(6) 0.334(8) 1. 1.
O1 O2- 8 b 0.210(12) 0.048(11) 0.282(13) 1.5 1.
O2 O2- 8 b 0.242(11) 0.310(11) 0.199(13) 1.4 1.
O3 O2- 4 a 0.5 0.148(16) 0.035(18) 1.6 1.
O4 O2- 4 a 0 0.191(15) 0.435(17) 1.1 1.
O5 O2- 4 a 0.5 0.171(16) 0.370(18) 1.4 1.
O6 O2- 4 a 0 0.454(15) 0.074(18) 1.3 1.
O7 O2- 4 a 0.5 0.455(15) 0.094(16) 0.9 1.
#End of TTdata_38029-ICSD