
#(C) 2020 by FIZ Karlsruhe - Leibniz Institute for Information Infrastructure.  All rights reserved.
data_380488-ICSD
_database_code_ICSD 380488
_audit_creation_date 2011-02-01
_chemical_name_common 'Potassium borodisilicate'
_chemical_formula_structural 'K B Si2 O6'
_chemical_formula_sum 'B1 K1 O6 Si2'
_chemical_name_structure_type KBGe2O6
_exptl_crystal_density_diffrn 2.74
_diffrn_ambient_temperature 293.
_citation_title

;
New isoformula potassium borosilicates with different zeolite frameworks:
Monoclinic centrosymmetric boroleucite K (B Si2) O6 and chiral K B Si2 O6
;
loop_
_citation_id
_citation_journal_full
_citation_year
_citation_journal_volume
_citation_page_first
_citation_page_last
_citation_journal_id_ASTM
primary Kristallografiya 2010 55 618 625 KRISAJ
loop_
_citation_author_citation_id
_citation_author_name
primary 'Belokoneva, E.L.'
primary 'Dimitrova, O.V.'
primary 'Stefanovich, S.Yu.'
_cell_length_a 4.7126(2)
_cell_length_b 9.9693(4)
_cell_length_c 10.4432(6)
_cell_angle_alpha 90.
_cell_angle_beta 90.
_cell_angle_gamma 90.
_cell_volume 490.64
_cell_formula_units_Z 4
_space_group_name_H-M_alt 'P 21 21 21'
_space_group_IT_number 19
loop_
_space_group_symop_id
_space_group_symop_operation_xyz
1 '-x, y+1/2, -z+1/2'
2 'x+1/2, -y+1/2, -z'
3 '-x+1/2, -y, z+1/2'
4 'x, y, z'
loop_
_atom_type_symbol
_atom_type_oxidation_number
K1+ 1
Si4+ 4
B3+ 3
O2- -2
loop_
_atom_site_label
_atom_site_type_symbol
_atom_site_symmetry_multiplicity
_atom_site_Wyckoff_symbol
_atom_site_fract_x
_atom_site_fract_y
_atom_site_fract_z
_atom_site_U_iso_or_equiv
_atom_site_occupancy
K1 K1+ 4 a 0.20204(15) 0.46625(8) 0.68861(8) 0.02206(19) 1
Si1 Si4+ 4 a 0.21462(17) 0.10835(8) 0.56540(8) 0.00424(16) 1
Si2 Si4+ 4 a 0.73392(17) 0.30150(8) 0.92456(8) 0.00749(17) 1
B1 B3+ 4 a 0.7105(7) 0.2303(3) 0.6563(3) 0.0062(6) 1
O1 O2- 4 a 1.0150(5) 0.1945(2) 0.6595(2) 0.0125(5) 1
O2 O2- 4 a 0.6673(4) 0.3567(2) 0.5849(2) 0.0125(5) 1
O3 O2- 4 a 0.5470(5) 0.1192(2) 0.6030(2) 0.0139(5) 1
O4 O2- 4 a 0.6133(4) 0.2553(2) 0.7899(2) 0.0143(5) 1
O5 O2- 4 a 0.9756(5) 0.1953(2) 0.9722(2) 0.0135(5) 1
O6 O2- 4 a 0.8756(4) 0.4494(2) 0.9201(2) 0.0136(5) 1
loop_
_atom_site_aniso_label
_atom_site_aniso_type_symbol
_atom_site_aniso_U_11
_atom_site_aniso_U_22
_atom_site_aniso_U_33
_atom_site_aniso_U_12
_atom_site_aniso_U_13
_atom_site_aniso_U_23
K1 K1+ 0.0196(4) 0.0207(4) 0.0259(4) -0.0009(4) 0.0030(4) -0.0053(4)
Si1 Si4+ 0.0034(3) 0.0036(3) 0.0057(4) -0.0004(3) -0.0001(4) 0.0002(3)
Si2 Si4+ 0.0070(4) 0.0074(4) 0.0081(4) 0.0002(3) 0.0002(4) 0.0004(3)
B1 B3+ 0.0043(15) 0.0068(15) 0.0075(16) 0.0018(13) 0.0000(13) 0.0014(12)
O1 O2- 0.0098(11) 0.0107(11) 0.0168(14) -0.0005(9) -0.0009(9) -0.0027(10)
O2 O2- 0.0144(11) 0.0113(11) 0.0119(12) 0.0020(8) -0.0019(10) 0.0017(9)
O3 O2- 0.0114(11) 0.0132(11) 0.0170(14) 0.0009(9) -0.0012(9) -0.0032(10)
O4 O2- 0.0133(11) 0.0197(12) 0.0098(12) 0.0022(9) -0.0012(10) -0.0007(10)
O5 O2- 0.0134(11) 0.0139(12) 0.0133(13) 0.0005(10) -0.0040(9) 0.0004(10)
O6 O2- 0.0127(10) 0.0070(10) 0.0212(13) -0.0004(8) 0.0017(10) 0.0012(11)
#End of TTdata_380488-ICSD