
#(C) 2020 by FIZ Karlsruhe - Leibniz Institute for Information Infrastructure.  All rights reserved.
data_38206-ICSD
_database_code_ICSD 38206
_audit_creation_date 1980-12-31
_audit_update_record 2006-04-01
_chemical_name_common 'Dilithium oxide tris(diborate)'
_chemical_formula_structural 'Li2 O (B2 O3)3'
_chemical_formula_sum 'B6 Li2 O10'
_chemical_name_structure_type LiB3O5
_exptl_crystal_density_diffrn 2.47
_citation_title 'Crystal structure of lithium triborate, Li2 O (B2 O3)3'
loop_
_citation_id
_citation_journal_full
_citation_year
_citation_journal_volume
_citation_page_first
_citation_page_last
_citation_journal_id_ASTM
primary 'Journal of the Ceramic Society of Japan' 1980 88 179 184 JCSJEW
loop_
_citation_author_citation_id
_citation_author_name
primary 'Ihara, M.'
primary 'Yuge, M.'
primary 'Krogh-Moe, J.'
_cell_length_a 8.4473(7)
_cell_length_b 7.3788(6)
_cell_length_c 5.1395(5)
_cell_angle_alpha 90.
_cell_angle_beta 90.
_cell_angle_gamma 90.
_cell_volume 320.35
_cell_formula_units_Z 2
_space_group_name_H-M_alt 'P n a 21'
_space_group_IT_number 33
loop_
_space_group_symop_id
_space_group_symop_operation_xyz
1 'x+1/2, -y+1/2, z'
2 '-x+1/2, y+1/2, z+1/2'
3 '-x, -y, z+1/2'
4 'x, y, z'
loop_
_atom_type_symbol
_atom_type_oxidation_number
O2- -2
B3+ 3
Li1+ 1
loop_
_atom_site_label
_atom_site_type_symbol
_atom_site_symmetry_multiplicity
_atom_site_Wyckoff_symbol
_atom_site_fract_x
_atom_site_fract_y
_atom_site_fract_z
_atom_site_B_iso_or_equiv
_atom_site_occupancy
O1 O2- 4 a 0.339(9) 0.373(9) 0.137(11) 0.69 1.
O2 O2- 4 a 0.263(9) 0.091(8) 0.327(11) 0.68 1.
O3 O2- 4 a 0.442(8) 0.297(9) 0.530(11) 0.68 1.
O4 O2- 4 a 0.087(8) 0.505(9) 0.216(11) 0.7 1.
O5 O2- 4 a 0.115(9) 0.297(8) 0.865(11) 0.69 1.
B1 B3+ 4 a 0.492(14) 0.162(16) 0.705(19) 0.64 1.
B2 B3+ 4 a 0.194(14) 0.444(15) 0.001(18) 0.61 1.
B3 B3+ 4 a 0.343(15) 0.249(16) 0.326(18) 0.67 1.
Li1 Li1+ 4 a 0.088(21) 0.067(23) 0.065(28) 0.76 1.
#End of TTdata_38206-ICSD