
#(C) 2020 by FIZ Karlsruhe - Leibniz Institute for Information Infrastructure.  All rights reserved.
data_38388-ICSD
_database_code_ICSD 38388
_audit_creation_date 1980-01-01
_audit_update_record 2014-08-01
_chemical_name_common 'Trisilver arsenic sulfide'
_chemical_formula_structural 'Ag3 As S3'
_chemical_formula_sum 'Ag3 As1 S3'
_chemical_name_structure_type Proustite#Ag3AsS3
_chemical_name_mineral Proustite
_exptl_crystal_density_diffrn 5.59
_citation_title

;
Die Verfeinerung der Kristallstruktur von Proustit, Ag3 As S3 und Pyrargyrit,
Ag3 Sb S3
;
loop_
_citation_id
_citation_journal_full
_citation_year
_citation_journal_volume
_citation_page_first
_citation_page_last
_citation_journal_id_ASTM
primary 'Neues Jahrbuch fuer Mineralogie, Monatshefte' 1966 1966 181 184 NJMMAW
loop_
_citation_author_citation_id
_citation_author_name
primary 'Engel, P.'
primary 'Nowacki, W.'
_cell_length_a 10.82(1)
_cell_length_b 10.82(1)
_cell_length_c 8.69(1)
_cell_angle_alpha 90.
_cell_angle_beta 90.
_cell_angle_gamma 120.
_cell_volume 881.06
_cell_formula_units_Z 6
_space_group_name_H-M_alt 'R 3 c H'
_space_group_IT_number 161
loop_
_space_group_symop_id
_space_group_symop_operation_xyz
1 '-x+y, y, z+1/2'
2 'x, x-y, z+1/2'
3 '-y, -x, z+1/2'
4 '-x+y, -x, z'
5 '-y, x-y, z'
6 'x, y, z'
7 '-x+y+2/3, y+1/3, z+5/6'
8 'x+2/3, x-y+1/3, z+5/6'
9 '-y+2/3, -x+1/3, z+5/6'
10 '-x+y+2/3, -x+1/3, z+1/3'
11 '-y+2/3, x-y+1/3, z+1/3'
12 'x+2/3, y+1/3, z+1/3'
13 '-x+y+1/3, y+2/3, z+1/6'
14 'x+1/3, x-y+2/3, z+1/6'
15 '-y+1/3, -x+2/3, z+1/6'
16 '-x+y+1/3, -x+2/3, z+2/3'
17 '-y+1/3, x-y+2/3, z+2/3'
18 'x+1/3, y+2/3, z+2/3'
loop_
_atom_type_symbol
_atom_type_oxidation_number
As3+ 3
Ag1+ 1
S2- -2
loop_
_atom_site_label
_atom_site_type_symbol
_atom_site_symmetry_multiplicity
_atom_site_Wyckoff_symbol
_atom_site_fract_x
_atom_site_fract_y
_atom_site_fract_z
_atom_site_B_iso_or_equiv
_atom_site_occupancy
As1 As3+ 6 a 0.0000(3) 0.0000(3) 0.0000(3) . 1.
Ag1 Ag1+ 18 b 0.2443(5) 0.3028(5) 0.2326(5) . 1.
S1 S2- 18 b 0.2115(6) 0.0948(6) 0.3771(8) . 1.
#End of TTdata_38388-ICSD