
#(C) 2020 by FIZ Karlsruhe - Leibniz Institute for Information Infrastructure.  All rights reserved.
data_39117-ICSD
_database_code_ICSD 39117
_audit_creation_date 1986-04-14
_audit_update_record 1999-11-30
_chemical_name_common 'Dilanthanum germanium diberyllate'
_chemical_formula_structural 'La2 Ge (Be2 O7)'
_chemical_formula_sum 'Be2 Ge1 La2 O7'
_chemical_name_structure_type Melilite#Ca2MgSi2O7
_exptl_crystal_density_diffrn 5.42
_citation_title

;
Structures and magnetic properties of rare earth compounds in the melilite
group
;
loop_
_citation_id
_citation_journal_full
_citation_year
_citation_journal_volume
_citation_page_first
_citation_page_last
_citation_journal_id_ASTM
primary 'Yogyo Kyokaishi' 1983 91 229 235 YGKSA4
loop_
_citation_author_citation_id
_citation_author_name
primary 'Ochi, Y.'
primary 'Morikawa, H.'
primary 'Marumo, F.'
primary 'Nozaki, H.'
_cell_length_a 7.695(1)
_cell_length_b 7.695(1)
_cell_length_c 4.968(1)
_cell_angle_alpha 90.
_cell_angle_beta 90.
_cell_angle_gamma 90.
_cell_volume 294.17
_cell_formula_units_Z 2
_space_group_name_H-M_alt 'P -4 21 m'
_space_group_IT_number 113
loop_
_space_group_symop_id
_space_group_symop_operation_xyz
1 '-y+1/2, -x+1/2, z'
2 'y, -x, -z'
3 'y+1/2, x+1/2, z'
4 '-y, x, -z'
5 'x+1/2, -y+1/2, -z'
6 '-x, -y, z'
7 '-x+1/2, y+1/2, -z'
8 'x, y, z'
loop_
_atom_type_symbol
_atom_type_oxidation_number
La3+ 3
Ge4+ 4
Be2+ 2
O2- -2
loop_
_atom_site_label
_atom_site_type_symbol
_atom_site_symmetry_multiplicity
_atom_site_Wyckoff_symbol
_atom_site_fract_x
_atom_site_fract_y
_atom_site_fract_z
_atom_site_B_iso_or_equiv
_atom_site_occupancy
La1 La3+ 4 e 0.3404(4) 0.8404(4) 0.502(1) 0.76 1.
Ge1 Ge4+ 2 a 0 0 0 0.54 1.
Be1 Be2+ 4 e 0.14(1) 0.64(1) -.04(1) 1.98 1.
O1 O2- 2 c 0 0.5 -.163(6) 0.42 1.
O2 O2- 4 e 0.138(5) 0.638(5) 0.271(4) 0.24 1.
O3 O2- 8 f 0.077(2) -.164(2) -.195(3) 0.94 1.
#End of TTdata_39117-ICSD