
#(C) 2020 by FIZ Karlsruhe - Leibniz Institute for Information Infrastructure.  All rights reserved.
data_39122-ICSD
_database_code_ICSD 39122
_audit_creation_date 1986-04-14
_audit_update_record 1999-11-30
_chemical_name_common 'Diyttrium germanium diberyllate'
_chemical_formula_structural 'Y2 Ge (Be2 O7)'
_chemical_formula_sum 'Be2 Ge1 O7 Y2'
_chemical_name_structure_type Melilite#Ca2MgSi2O7
_exptl_crystal_density_diffrn 4.81
_citation_title

;
Structures and magnetic properties of rare earth compounds in the melilite
group
;
loop_
_citation_id
_citation_journal_full
_citation_year
_citation_journal_volume
_citation_page_first
_citation_page_last
_citation_journal_id_ASTM
primary 'Yogyo Kyokaishi' 1983 91 229 235 YGKSA4
loop_
_citation_author_citation_id
_citation_author_name
primary 'Ochi, Y.'
primary 'Morikawa, H.'
primary 'Marumo, F.'
primary 'Nozaki, H.'
_cell_length_a 7.399(1)
_cell_length_b 7.399(1)
_cell_length_c 4.797(1)
_cell_angle_alpha 90.
_cell_angle_beta 90.
_cell_angle_gamma 90.
_cell_volume 262.61
_cell_formula_units_Z 2
_space_group_name_H-M_alt 'P -4 21 m'
_space_group_IT_number 113
loop_
_space_group_symop_id
_space_group_symop_operation_xyz
1 '-y+1/2, -x+1/2, z'
2 'y, -x, -z'
3 'y+1/2, x+1/2, z'
4 '-y, x, -z'
5 'x+1/2, -y+1/2, -z'
6 '-x, -y, z'
7 '-x+1/2, y+1/2, -z'
8 'x, y, z'
loop_
_atom_type_symbol
_atom_type_oxidation_number
Y3+ 3
Ge4+ 4
Be2+ 2
O2- -2
loop_
_atom_site_label
_atom_site_type_symbol
_atom_site_symmetry_multiplicity
_atom_site_Wyckoff_symbol
_atom_site_fract_x
_atom_site_fract_y
_atom_site_fract_z
_atom_site_B_iso_or_equiv
_atom_site_occupancy
Y1 Y3+ 4 e 0.3407(3) 0.8407(3) 0.5051(8) 0.8 1.
Ge1 Ge4+ 2 a 0 0 0 0.56 1.
Be1 Be2+ 4 e 0.134(7) 0.634(7) -.053(8) 1.85 1.
O1 O2- 2 c 0 0.5 -.188(4) 0.11 1.
O2 O2- 4 e 0.143(3) 0.643(3) 0.275(2) 0.58 1.
O3 O2- 8 f 0.084(1) -.172(1) -.209(2) 0.94 1.
#End of TTdata_39122-ICSD