
#(C) 2020 by FIZ Karlsruhe - Leibniz Institute for Information Infrastructure.  All rights reserved.
data_39133-ICSD
_database_code_ICSD 39133
_audit_creation_date 1986-12-03
_audit_update_record 2012-08-01
_chemical_name_common 'Dibarium digermanium titanium oxide'
_chemical_formula_structural 'Ba2 Ge2 Ti O8'
_chemical_formula_sum 'Ba2 Ge2 O8 Ti1'
_exptl_crystal_density_diffrn 4.87
_citation_title

;
Structure of a ferroelastic crystal Ba2 Ti Ge2 O8 and its thermal phase
transition.
;
loop_
_citation_id
_citation_journal_full
_citation_year
_citation_journal_volume
_citation_page_first
_citation_page_last
_citation_journal_id_ASTM
primary 'Nippon Kagaku Kaishi' 1981 1981 1557 1563 NKAKB8
loop_
_citation_author_citation_id
_citation_author_name
primary 'Iijima, K.'
primary 'Marumo, F.'
primary 'Kimura, M.'
primary 'Kawamura, T.'
_cell_length_a 12.310(1)
_cell_length_b 12.292(1)
_cell_length_c 5.366(1)
_cell_angle_alpha 90.
_cell_angle_beta 90.
_cell_angle_gamma 90.
_cell_volume 811.95
_cell_formula_units_Z 4
_space_group_name_H-M_alt 'C m m 2'
_space_group_IT_number 35
loop_
_space_group_symop_id
_space_group_symop_operation_xyz
1 'x, -y, z'
2 '-x, y, z'
3 '-x, -y, z'
4 'x, y, z'
5 'x+1/2, -y+1/2, z'
6 '-x+1/2, y+1/2, z'
7 '-x+1/2, -y+1/2, z'
8 'x+1/2, y+1/2, z'
loop_
_atom_type_symbol
_atom_type_oxidation_number
Ba2+ 2
Ge4+ 4
Ti4+ 4
O2- -2
loop_
_atom_site_label
_atom_site_type_symbol
_atom_site_symmetry_multiplicity
_atom_site_Wyckoff_symbol
_atom_site_fract_x
_atom_site_fract_y
_atom_site_fract_z
_atom_site_B_iso_or_equiv
_atom_site_occupancy
Ba1 Ba2+ 4 e 0 0.32773(7) 0 . 1.
Ba2 Ba2+ 4 d 0.17233(8) 0 -.0007(5) . 1.
Ge1 Ge4+ 4 e 0 0.1305(1) 0.4963(6) . 1.
Ge2 Ge4+ 4 d 0.3675(2) 0 0.4858(7) . 1.
Ti1 Ti4+ 4 c 0.25 0.25 0.4623(6) . 1.
O1 O2- 8 f 0.1076(11) 0.1922(23) 0.3632(31) . 1.
O2 O2- 2 a 0 0 0.3652(73) . 1.
O3 O2- 4 e 0 0.1266(13) 0.8110(26) . 1.
O4 O2- 8 f 0.3086(23) 0.1143(18) 0.3452(34) . 1.
O5 O2- 2 b 0 0.5 0.3452(43) . 1.
O6 O2- 4 d 0.3754(15) 0 0.8075(29) . 1.
O7 O2- 4 c 0.25 0.25 0.7823(31) . 1.
loop_
_atom_site_aniso_label
_atom_site_aniso_type_symbol
_atom_site_aniso_U_11
_atom_site_aniso_U_22
_atom_site_aniso_U_33
_atom_site_aniso_U_12
_atom_site_aniso_U_13
_atom_site_aniso_U_23
Ba1 Ba2+ 0.0384(5) 0.0079(3) 0.0125(3) 0 0 0.0019(7)
Ba2 Ba2+ 0.0091(3) 0.0410(6) 0.0222(5) 0 -0.0037(6) 0
Ge1 Ge4+ 0.0127(5) 0.0075(5) 0.0105(6) 0 0 -0.0004(1)
Ge2 Ge4+ 0.050(1) 0.0211(8) 0.0086(9) 0 -0.006(1) 0
Ti1 Ti4+ 0.0065(9) 0.027(1) 0.014(1) -0.001(1) 0 0
O1 O2- 0.026(60) 0.20(3) 0.034(8) -0.07(1) -0.020(6) 0.05(1)
O2 O2- 0.029(8) 0.003(9) 0.02(1) 0 0 0
O3 O2- 0.020(6) 0.024(7) 0.007(4) 0 0 -0.007(5)
O4 O2- 0.17(2) 0.06(1) 0.033(1) 0.06(1) -0.04(1) -0.014(9)
O5 O2- 0.04(1) 0.03(1) 0.005(8) 0 0 0
O6 O2- 0.032(8) 0.033(8) 0.007(5) 0 -0.001(5) 0
O7 O2- 0.03(1) 0.07(1) 0.010(7) 0.001(1) 0 0
#End of TTdata_39133-ICSD