
#(C) 2020 by FIZ Karlsruhe - Leibniz Institute for Information Infrastructure.  All rights reserved.
data_39227-ICSD
_database_code_ICSD 39227
_audit_creation_date 1990-06-08
_audit_update_record 2009-02-01
_chemical_name_common 'Tetrabismuth tris(germanate)'
_chemical_formula_structural 'Bi4 (Ge O4)3'
_chemical_formula_sum 'Bi4 Ge3 O12'
_chemical_name_structure_type Eulytite#Bi4(SiO4)3
_exptl_crystal_density_diffrn 7.1
_diffrn_ambient_temperature 293.
_citation_title

;
Neutron diffraction study of single crystals of Bi4 Ge3 O12 with eulitine
structure
;
loop_
_citation_id
_citation_journal_full
_citation_year
_citation_journal_volume
_citation_page_first
_citation_page_last
_citation_journal_id_ASTM
primary Kristallografiya 1990 35 361 364 KRISAJ
loop_
_citation_author_citation_id
_citation_author_name
primary 'Radaev, S.F.'
primary 'Muradyan, L.A.'
primary 'Kargin, Yu.F.'
primary 'Sarin, V.A.'
primary 'Kanepit, V.N.'
primary 'Simonov, V.I.'
_cell_length_a 10.524(3)
_cell_length_b 10.524(3)
_cell_length_c 10.524(3)
_cell_angle_alpha 90.
_cell_angle_beta 90.
_cell_angle_gamma 90.
_cell_volume 1165.58
_cell_formula_units_Z 4
_space_group_name_H-M_alt 'I -4 3 d'
_space_group_IT_number 220
loop_
_space_group_symop_id
_space_group_symop_operation_xyz
1 '-y+1/4, -x+3/4, z+3/4'
2 'y+3/4, -x+1/4, -z+3/4'
3 '-y+3/4, x+3/4, -z+1/4'
4 'y+1/4, x+1/4, z+1/4'
5 'z+1/2, -x+1/2, -y'
6 '-z+1/2, -x, y+1/2'
7 '-z, x+1/2, -y+1/2'
8 'z, x, y'
9 'z+3/4, -y+1/4, -x+3/4'
10 '-z+3/4, y+3/4, -x+1/4'
11 '-z+1/4, -y+3/4, x+3/4'
12 'z+1/4, y+1/4, x+1/4'
13 '-y, z+1/2, -x+1/2'
14 'y+1/2, -z+1/2, -x'
15 '-y+1/2, -z, x+1/2'
16 'y, z, x'
17 '-x+3/4, z+3/4, -y+1/4'
18 '-x+1/4, -z+3/4, y+3/4'
19 'x+3/4, -z+1/4, -y+3/4'
20 'x+1/4, z+1/4, y+1/4'
21 '-x+1/2, -y, z+1/2'
22 '-x, y+1/2, -z+1/2'
23 'x+1/2, -y+1/2, -z'
24 'x, y, z'
25 '-y+3/4, -x+1/4, z+1/4'
26 'y+1/4, -x+3/4, -z+1/4'
27 '-y+1/4, x+1/4, -z+3/4'
28 'y+3/4, x+3/4, z+3/4'
29 'z, -x, -y+1/2'
30 '-z, -x+1/2, y'
31 '-z+1/2, x, -y'
32 'z+1/2, x+1/2, y+1/2'
33 'z+1/4, -y+3/4, -x+1/4'
34 '-z+1/4, y+1/4, -x+3/4'
35 '-z+3/4, -y+1/4, x+1/4'
36 'z+3/4, y+3/4, x+3/4'
37 '-y+1/2, z, -x'
38 'y, -z, -x+1/2'
39 '-y, -z+1/2, x'
40 'y+1/2, z+1/2, x+1/2'
41 '-x+1/4, z+1/4, -y+3/4'
42 '-x+3/4, -z+1/4, y+1/4'
43 'x+1/4, -z+3/4, -y+1/4'
44 'x+3/4, z+3/4, y+3/4'
45 '-x, -y+1/2, z'
46 '-x+1/2, y, -z'
47 'x, -y, -z+1/2'
48 'x+1/2, y+1/2, z+1/2'
loop_
_atom_type_symbol
_atom_type_oxidation_number
Bi3+ 3
Ge4+ 4
O2- -2
loop_
_atom_site_label
_atom_site_type_symbol
_atom_site_symmetry_multiplicity
_atom_site_Wyckoff_symbol
_atom_site_fract_x
_atom_site_fract_y
_atom_site_fract_z
_atom_site_B_iso_or_equiv
_atom_site_occupancy
Bi1 Bi3+ 16 c 0.08751(4) 0.08751(4) 0.08751(4) 0.52(1) 1.
Ge1 Ge4+ 12 a 0.375 0 0.25 0.42(1) 1.
O1 O2- 48 e 0.06951(8) 0.12668(8) 0.28770(8) 0.97(2) 1.
#End of TTdata_39227-ICSD