
#(C) 2020 by FIZ Karlsruhe - Leibniz Institute for Information Infrastructure.  All rights reserved.
data_39262-ICSD
_database_code_ICSD 39262
_audit_creation_date 1990-12-27
_audit_update_record 2006-04-01
_chemical_name_common 'Lanthanum borogermanate'
_chemical_formula_structural 'La (B Ge O5)'
_chemical_formula_sum 'B1 Ge1 La1 O5'
_chemical_name_structure_type CeBSiO5
_exptl_crystal_density_diffrn 5.13
_citation_title

;
Growth, structure and spectroscopy of lanthanum borogermanate crystals La B Ge
O5
;
loop_
_citation_id
_citation_journal_full
_citation_year
_citation_journal_volume
_citation_page_first
_citation_page_last
_citation_journal_id_ASTM
primary 'Izvestiya Akademii Nauk SSSR, Neorganicheskie Materialy' 1990 26 1105
1107 IVNMAW
loop_
_citation_author_citation_id
_citation_author_name
primary 'Kaminskii, A.A.'
primary 'Mill', B.V. (Mill, B.V.)'
primary 'Belokoneva, E.L.'
primary 'Butashin, A.V.'
_cell_length_a 7.020(5)
_cell_length_b 7.020(5)
_cell_length_c 6.879(4)
_cell_angle_alpha 90.
_cell_angle_beta 90.
_cell_angle_gamma 120.
_cell_volume 293.58
_cell_formula_units_Z 3
_space_group_name_H-M_alt 'P 31'
_space_group_IT_number 144
loop_
_space_group_symop_id
_space_group_symop_operation_xyz
1 '-x+y, -x, z+2/3'
2 '-y, x-y, z+1/3'
3 'x, y, z'
loop_
_atom_type_symbol
_atom_type_oxidation_number
La3+ 3
Ge4+ 4
B3+ 3
O2- -2
loop_
_atom_site_label
_atom_site_type_symbol
_atom_site_symmetry_multiplicity
_atom_site_Wyckoff_symbol
_atom_site_fract_x
_atom_site_fract_y
_atom_site_fract_z
_atom_site_B_iso_or_equiv
_atom_site_occupancy
La1 La3+ 3 a 0.58933(6) 0.00074(5) 0 . 1.
Ge1 Ge4+ 3 a 0.57997(11) -.00333(11) 0.5012(4) . 1.
B1 B3+ 3 a 0.1143(13) 0.0096(14) 0.9794(14) . 1.
O1 O2- 3 a 0.3438(8) 0.1900(8) 0.0116(7) . 1.
O2 O2- 3 a 0.1870(9) 0.3320(8) 0.3245(8) . 1.
O3 O2- 3 a 0.6125(8) 0.4685(9) 0.3409(7) . 1.
O4 O2- 3 a 0.4568(10) 0.6101(8) -.0108(8) . 1.
O5 O2- 3 a 0.0567(10) 0.0436(9) 0.7807(8) . 1.
loop_
_atom_site_aniso_label
_atom_site_aniso_type_symbol
_atom_site_aniso_B_11
_atom_site_aniso_B_22
_atom_site_aniso_B_33
_atom_site_aniso_B_12
_atom_site_aniso_B_13
_atom_site_aniso_B_23
La1 La3+ 0.37(1) 0.28(1) 0.37(1) 0.14(1) 0.00(1) 0.03(1)
Ge1 Ge4+ 0.25(2) 0.38(2) 0.20(1) 0.20(2) 0.00(3) 0.01(2)
B1 B3+ 0.49(22) 0.58(21) 1.51(29) 0.24(19) 0.02(19) -.4(2)
O1 O2- 0.55(15) 0.45(14) 0.47(13) 0.16(12) 0.11(11) -.23(11)
O2 O2- 0.41(14) 0.62(16) 0.86(16) 0.24(12) 0.08(12) -.23(13)
O3 O2- 0.36(14) 1.38(18) 0.46(14) 0.31(13) -.17(11) -.05(13)
O4 O2- 1.57(20) 0.35(14) 0.59(15) 0.42(14) 0.23(14) 0.23(11)
O5 O2- 1.36(19) 0.80(17) 0.99(18) 0.46(15) -.27(15) -.26(14)
#End of TTdata_39262-ICSD