
#(C) 2020 by FIZ Karlsruhe - Leibniz Institute for Information Infrastructure.  All rights reserved.
data_39586-ICSD
_database_code_ICSD 39586
_audit_creation_date 1993-08-22
_audit_update_record 2012-08-01
_chemical_name_common 'Rubidium antimony oxide germanate'
_chemical_formula_structural 'Rb Sb O (Ge O4)'
_chemical_formula_sum 'Ge1 O5 Rb1 Sb1'
_chemical_name_structure_type KTiOPO4#KFePO4F
_exptl_crystal_density_diffrn 4.96
_citation_title 'Crystal structures of K Ta O Ge O4 and Rb Sb O Ge O4.'
loop_
_citation_id
_citation_journal_full
_citation_year
_citation_journal_volume
_citation_page_first
_citation_page_last
_citation_journal_id_ASTM
primary 'Zhurnal Neorganicheskoi Khimii' 1992 37 998 1003 ZNOKAQ
loop_
_citation_author_citation_id
_citation_author_name
primary 'Belokoneva, E.L.'
primary 'Mill', B.V. (Mill, B.V.)'
_cell_length_a 13.382(3)
_cell_length_b 6.708(2)
_cell_length_c 10.746(2)
_cell_angle_alpha 90.
_cell_angle_beta 90.
_cell_angle_gamma 90.
_cell_volume 964.63
_cell_formula_units_Z 8
_space_group_name_H-M_alt 'P n a 21'
_space_group_IT_number 33
loop_
_space_group_symop_id
_space_group_symop_operation_xyz
1 'x+1/2, -y+1/2, z'
2 '-x+1/2, y+1/2, z+1/2'
3 '-x, -y, z+1/2'
4 'x, y, z'
loop_
_atom_type_symbol
_atom_type_oxidation_number
Rb1+ 1
Sb5+ 5
Ge4+ 4
O2- -2
loop_
_atom_site_label
_atom_site_type_symbol
_atom_site_symmetry_multiplicity
_atom_site_Wyckoff_symbol
_atom_site_fract_x
_atom_site_fract_y
_atom_site_fract_z
_atom_site_B_iso_or_equiv
_atom_site_occupancy
Rb1 Rb1+ 4 a 0.3871(1) 0.7809(2) 0.6637(3) . 1.
Rb2 Rb1+ 4 a 0.1105(1) 0.7000(2) 0.9229(2) . 1.
Sb1 Sb5+ 4 a 0.24609(9) 0.25499(18) 0.75396(21) . 1.
Sb2 Sb5+ 4 a 0.38115(5) 0.50550(17) 0 . 1.
Ge1 Ge4+ 4 a 0.49864(16) 0.31821(16) 0.7496(3) . 1.
Ge2 Ge4+ 4 a 0.18041(9) 0.5085(3) 0.4998(3) . 1.
O1 O2- 4 a 0.4852(11) 0.4914(25) 0.8749(11) . 1.
O2 O2- 4 a 0.9928(11) 0.9596(26) 0.1189(14) . 1.
O3 O2- 4 a 0.388(1) 0.1733(16) 0.7399(13) . 1.
O4 O2- 4 a 0.8984(8) 0.6686(17) 0.2759(13) . 1.
O5 O2- 4 a 0.1081(10) 0.2972(16) 0.4615(11) . 1.
O6 O2- 4 a 0.607(1) 0.7865(20) 0.5345(15) . 1.
O7 O2- 4 a 0.2656(12) 0.5548(22) 0.3838(11) . 1.
O8 O2- 4 a 0.7643(11) 0.0422(23) 0.6240(14) . 1.
O9 O2- 4 a 0.2272(14) 0.9654(25) 0.3784(12) . 1.
O10 O2- 4 a 0.7182(12) 0.4550(22) 0.6304(13) . 1.
loop_
_atom_site_aniso_label
_atom_site_aniso_type_symbol
_atom_site_aniso_B_11
_atom_site_aniso_B_22
_atom_site_aniso_B_33
_atom_site_aniso_B_12
_atom_site_aniso_B_13
_atom_site_aniso_B_23
Rb1 Rb1+ 1.54(7) 0.71(5) 3.81(10) 0.28(4) -.66(7) -.55(6)
Rb2 Rb1+ 0.80(5) 1.06(5) 2.42(8) 0.37(4) -.06(5) -.38(5)
Sb1 Sb5+ 0.31(2) 0.35(2) 0.24(2) -.05(2) -.04(2) 0.02(2)
Sb2 Sb5+ 0.31(2) 0.31(2) 0.28(2) 0.00(4) 0.03(4) -.05(2)
Ge1 Ge4+ 0.35(3) 0.43(3) 0.37(3) 0.07(6) 0.00(3) 0.00(7)
Ge2 Ge4+ 0.50(3) 0.35(4) 0.40(3) 0.04(5) -.02(7) -.01(4)
O1 O2- 0.6(4) 1.9(7) 0.1(3) -1. 0.7(3) -.6(4)
O2 O2- 0.9(5) 0.5(3) 1.8(6) 0.4(3) -.3(4) 0.7(4)
O3 O2- 0.9(4) 0.3(3) 1.3(5) 0.5(3) -.1(4) 0.3(3)
O4 O2- 0.3(3) 0.7(4) 1.5(5) -.4(2) 0.1(3) 0.7(3)
O5 O2- 1.3(4) 0.2(2) 0.9(4) -.1(3) -.9(4) 0.4(3)
O6 O2- 0.7(4) 0.7(4) 2.5(7) -.2(4) -.2(4) 0.1(4)
O7 O2- 1.6(5) 1.3(4) 0.5(4) 1.4(4) 1.1(4) 1.2(3)
O8 O2- 0.5(4) 0.8(5) 1.7(7) -.6(4) 0.1(4) -.2(4)
O9 O2- 1.5(6) 1.2(5) 0.2(4) 0.5(4) -.1(3) 0.0(3)
O10 O2- 0.6(4) 0.6(4) 0.7(4) -.6(3) -.5(3) 0.6(3)
#End of TTdata_39586-ICSD