
#(C) 2020 by FIZ Karlsruhe - Leibniz Institute for Information Infrastructure.  All rights reserved.
data_39637-ICSD
_database_code_ICSD 39637
_audit_creation_date 1993-08-22
_audit_update_record 2007-08-01
_chemical_name_common 'Potassium calcium borate hydroxide chloride hydrate *'
_chemical_formula_structural 'K Ca4 (B22 O32) (O H)10 Cl (H2 O)4'
_chemical_formula_sum 'H18 B22 Ca4 Cl1 K1 O46'
_chemical_name_mineral Volkovskite
_exptl_crystal_density_diffrn 2.29
_citation_title

;
Crystal structure of volkovskite K Ca4 B22 O32 (O H)10 Cl (H2 O)4 from nepskii
deposit (eastern Siberia).
;
loop_
_citation_id
_citation_journal_full
_citation_year
_citation_journal_volume
_citation_page_first
_citation_page_last
_citation_journal_id_ASTM
primary Kristallografiya 1992 37 326 333 KRISAJ
loop_
_citation_author_citation_id
_citation_author_name
primary 'Rastsvetaeva, R.K.'
primary 'Andrianov, V.I.'
primary 'Genkina, E.A.'
primary 'Sokolova, T.N.'
primary 'Kashaev, A.A.'
_cell_length_a 6.50(1)
_cell_length_b 23.960(40)
_cell_length_c 6.62(2)
_cell_angle_alpha 95.68(6)
_cell_angle_beta 119.6(3)
_cell_angle_gamma 90.59(5)
_cell_volume 889.96
_cell_formula_units_Z 1
_space_group_name_H-M_alt 'P 1'
_space_group_IT_number 1
loop_
_space_group_symop_id
_space_group_symop_operation_xyz
1 'x, y, z'
loop_
_atom_type_symbol
_atom_type_oxidation_number
Ca2+ 2
K1+ 1
Cl1- -1
O2- -2
B3+ 3
H1+ 1
loop_
_atom_site_label
_atom_site_type_symbol
_atom_site_symmetry_multiplicity
_atom_site_Wyckoff_symbol
_atom_site_fract_x
_atom_site_fract_y
_atom_site_fract_z
_atom_site_B_iso_or_equiv
_atom_site_occupancy
Ca1 Ca2+ 1 a 0.8140(1) 0.1653(1) 0.6591(1) 2.70(3) 1.
Ca2 Ca2+ 1 a 0.7182(3) 0.5818(1) 0.3904(3) 2.53(3) 1.
Ca3 Ca2+ 1 a 0.4972(3) 0.9070(1) 0.0221(3) 2.60(3) 1.
Ca4 Ca2+ 1 a 0.1926(3) 0.4890(1) 0.3451(3) 2.48(3) 1.
K1 K1+ 1 a 0.0227(4) 0.0230(1) 0.0367(3) 3.58(2) 1.
Cl1 Cl1- 1 a 0.5288(5) 0.0224(1) 0.0627(4) 3.46(4) 1.
O1 O2- 1 a 0.139(1) 0.1532(2) 0.539(1) 2.5(1) 1.
O2 O2- 1 a 0.818(1) 0.9152(2) 0.905(1) 2.6(1) 1.
O3 O2- 1 a 0.036(1) 0.9164(3) 0.702(1) 2.8(1) 1.
O4 O2- 1 a 0.042(1) 0.5874(2) 0.280(9) 2.5(1) 1.
O5 O2- 1 a 0.918(1) 0.4879(2) 0.523(1) 2.6(1) 1.
O6 O2- 1 a 0.604(1) 0.4678(2) 0.610(1) 2.5(1) 1.
O7 O2- 1 a 0.141(1) 0.6033(2) 0.676(1) 2.5(1) 1.
O8 O2- 1 a 0.903(1) 0.2542(2) 0.912(1) 3.4(1) 1.
O9 O2- 1 a 0.838(1) 0.5891(2) 0.856(1) 2.6(1) 1.
O10 O2- 1 a 0.541(1) 0.5987(2) 0.969(1) 2.6(1) 1.
O11 O2- 1 a 0.321(1) 0.9156(2) 0.591(1) 2.7(1) 1.
O12 O2- 1 a 0.245(1) 0.1670(2) 0.934(1) 2.8(1) 1.
O13 O2- 1 a 0.036(1) 0.6730(2) 0.111(1) 2.7(1) 1.
O14 O2- 1 a 0.784(1) 0.8357(2) 0.639(1) 2.9(1) 1.
O15 O2- 1 a 0.533(1) 0.8172(2) 0.183(1) 3.4(1) 1.
O16 O2- 1 a 0.233(1) 0.9143(2) 0.195(1) 2.7(1) 1.
O17 O2- 1 a 0.723(1) 0.4752(2) 0.020(1) 2.6(1) 1.
O18 O2- 1 a 0.352(1) 0.1559(2) 0.333(1) 2.8(1) 1.
O19 O2- 1 a 0.274(1) 0.6724(2) 0.523(1) 2.9(1) 1.
O20 O2- 1 a 0.445(1) 0.5829(2) 0.571(1) 2.5(1) 1.
O21 O2- 1 a 0.622(1) 0.9214(2) 0.487(1) 2.7(1) 1.
O22 O2- 1 a 0.512(1) 0.4837(2) 0.227(1) 2.6(1) 1.
O23 O2- 1 a 0.008(1) 0.4723(2) 0.908(1) 2.5(1) 1.
O24 O2- 1 a 0.641(1) 0.1587(2) 0.227(1) 2.6(1) 1.
O25 O2- 1 a 0.920(1) 0.9014(2) 0.290(1) 2.7(1) 1.
O26 O2- 1 a 0.369(1) 0.8120(2) 0.796(1) 3.6(1) 1.
O27 O2- 1 a 0.254(1) 0.5960(2) 0.078(1) 2.5(1) 1.
O28 O2- 1 a -.018(1) 0.8283(2) 0.049(1) 2.9(1) 1.
O29 O2- 1 a 0.571(1) 0.3126(2) 0.159(1) 3.9(1) 1.
O30 O2- 1 a 0.555(1) 0.1579(2) 0.831(1) 2.7(1) 1.
O31 O2- 1 a 0.936(1) 0.1462(2) 0.114(1) 2.5(1) 1.
O32 O2- 1 a 0.130(1) 0.2341(2) 0.347(1) 2.8(1) 1.
O33 O2- 1 a 0.337(1) 0.2413(2) 0.763(1) 3.2(1) 1.
O34 O2- 1 a 0.701(1) 0.3982(2) 0.390(1) 2.8(1) 1.
O35 O2- 1 a 0.860(1) 0.7473(2) 0.772(1) 4.0(2) 1.
O36 O2- 1 a 0.244(1) 0.3229(2) 0.565(1) 3.9(2) 1.
O37 O2- 1 a 0.307(1) 0.4812(2) 0.801(1) 2.6(1) 1.
O38 O2- 1 a 0.737(1) 0.2598(2) 0.531(1) 3.6(1) 1.
O39 O2- 1 a 0.717(1) 0.6778(2) 0.386(1) 3.8(2) 1.
O40 O2- 1 a 0.866(1) 0.3462(3) 0.791(1) 4.0(2) 1.
O41 O2- 1 a 0.187(1) 0.7581(3) 0.373(1) 4.0(2) 1.
O42 O2- 1 a 0.461(1) 0.3974(2) 0.976(1) 2.8(1) 1.
O43 O2- 1 a 0.736(1) 0.0655(3) 0.601(1) 3.7(2) 1.
O44 O2- 1 a 0.276(1) 0.0422(3) 0.523(1) 4.6(4) 1.
O45 O2- 1 a 0.467(1) 0.7261(3) 0.973(1) 4.2(2) 1.
O46 O2- 1 a 0.138(1) 0.3936(2) 0.249(1) 3.8(2) 1.
B1 B3+ 1 a 0.042(2) 0.6116(3) 0.082(1) 2.5(1) 1.
B2 B3+ 1 a 0.991(2) 0.8903(3) 0.108(1) 2.5(1) 1.
B3 B3+ 1 a 0.303(2) 0.5999(3) 0.903(1) 2.5(1) 1.
B4 B3+ 1 a 0.395(2) 0.9171(3) 0.427(1) 2.4(1) 1.
B5 B3+ 1 a 0.767(2) 0.4715(3) 0.840(1) 2.4(1) 1.
B6 B3+ 1 a 0.401(2) 0.1609(3) 0.155(1) 2.5(1) 1.
B7 B3+ 1 a 0.241(2) 0.2651(4) 0.562(2) 3.3(4) 1.
B8 B3+ 1 a 0.709(2) 0.1544(3) 0.058(2) 2.5(1) 1.
B9 B3+ 1 a 0.221(2) 0.6127(3) 0.508(1) 2.5(1) 1.
B10 B3+ 1 a 0.164(2) 0.7010(4) 0.331(2) 3.1(2) 1.
B11 B3+ 1 a 0.573(2) 0.3701(4) 0.172(2) 3.0(2) 1.
B12 B3+ 1 a 0.081(2) 0.4806(3) 0.748(1) 2.5(1) 1.
B13 B3+ 1 a 0.872(2) 0.8044(4) 0.820(2) 3.2(2) 1.
B14 B3+ 1 a 0.497(2) 0.4596(4) 0.006(1) 2.6(2) 1.
B15 B3+ 1 a 0.138(2) 0.1719(4) 0.336(1) 2.8(2) 1.
B16 B3+ 1 a 0.612(2) 0.5905(3) 0.803(1) 2.4(2) 1.
B17 B3+ 1 a 0.840(2) 0.2894(4) 0.748(2) 3.0(2) 1.
B18 B3+ 1 a 0.317(2) 0.1791(4) 0.763(1) 2.6(2) 1.
B19 B3+ 1 a 0.813(2) 0.8979(4) 0.686(1) 2.7(2) 1.
B20 B3+ 1 a 0.456(2) 0.7827(4) 0.983(1) 3.1(2) 1.
B21 B3+ 1 a 0.678(2) 0.4582(3) 0.433(1) 2.6(2) 1.
B22 B3+ 1 a 0.081(2) 0.9106(3) 0.519(1) 2.3(1) 1.
H1 H1+ 1 a -.01(2) 0.243(6) 0.05(2) 3.4(1) 1.
H2 H1+ 1 a 0.61(3) 0.813(7) 0.34(2) 3.4(1) 1.
H3 H1+ 1 a 0.30(2) 0.795(6) 0.63(2) 3.6(1) 1.
H4 H1+ 1 a 0.48(2) 0.289(6) 0.02(2) 3.9(1) 1.
H5 H1+ 1 a 0.93(2) 0.726(6) 0.88(2) 4.(1) 1.
H6 H1+ 1 a 0.31(2) 0.348(6) 0.71(2) 3.9(1) 1.
H7 H1+ 1 a 0.68(2) 0.276(6) 0.40(2) 3.6(1) 1.
H8 H1+ 1 a 0.78(2) 0.355(6) 0.65(2) 4.(1) 1.
H9 H1+ 1 a 0.09(3) 0.777(7) 0.27(3) 4.(1) 1.
H10 H1+ 1 a 0.39(2) 0.709(6) 0.81(2) 4.2(1) 1.
H11 H1+ 1 a 0.78(2) 0.699(6) 0.53(2) 3.8(1) 1.
H12 H1+ 1 a 0.65(2) 0.684(6) 0.25(2) 3.8(1) 1.
H13 H1+ 1 a 0.58(2) 0.058(6) 0.57(2) 3.7(1) 1.
H14 H1+ 1 a 0.68(2) 0.051(6) 0.43(2) 3.7(1) 1.
H15 H1+ 1 a 0.22(2) 0.077(6) 0.63(2) 4.6(1) 1.
H16 H1+ 1 a 0.33(2) 0.027(6) 0.67(2) 4.6(1) 1.
H17 H1+ 1 a 0.21(2) 0.370(6) 0.38(2) 3.8(1) 1.
H18 H1+ 1 a 0.05(2) 0.377(6) 0.09(2) 3.8(1) 1.
#End of TTdata_39637-ICSD