
#(C) 2020 by FIZ Karlsruhe - Leibniz Institute for Information Infrastructure.  All rights reserved.
data_39713-ICSD
_database_code_ICSD 39713
_audit_creation_date 1994-06-30
_audit_update_record 2010-02-01
_chemical_name_common 'Rubidium oxotitanium phosphate(V) - alpha'
_chemical_formula_structural 'Rb (Ti O) (P O4)'
_chemical_formula_sum 'O5 P1 Rb1 Ti1'
_chemical_name_structure_type KTiOPO4#KFePO4F
_exptl_crystal_density_diffrn 3.62
_citation_title
'Crystal structure of rubidium titanilphosphate alpha Rb Ti O P O4'
loop_
_citation_id
_citation_journal_full
_citation_year
_citation_journal_volume
_citation_page_first
_citation_page_last
_citation_journal_id_ASTM
primary 'Zhurnal Neorganicheskoi Khimii' 1993 38 1121 1124 ZNOKAQ
loop_
_citation_author_citation_id
_citation_author_name
primary 'Lyakhov, A.S.'
primary 'Selevich, A.F.'
primary 'Verenich, A.I.'
_cell_length_a 6.518(1)
_cell_length_b 10.582(2)
_cell_length_c 12.995(2)
_cell_angle_alpha 90.
_cell_angle_beta 90.
_cell_angle_gamma 90.
_cell_volume 896.31
_cell_formula_units_Z 8
_space_group_name_H-M_alt 'P c 21 n'
_space_group_IT_number 33
loop_
_space_group_symop_id
_space_group_symop_operation_xyz
1 '-x+1/2, y, z+1/2'
2 'x+1/2, y+1/2, -z+1/2'
3 '-x, y+1/2, -z'
4 'x, y, z'
loop_
_atom_type_symbol
_atom_type_oxidation_number
Rb1+ 1
Ti4+ 4
P5+ 5
O2- -2
loop_
_atom_site_label
_atom_site_type_symbol
_atom_site_symmetry_multiplicity
_atom_site_Wyckoff_symbol
_atom_site_fract_x
_atom_site_fract_y
_atom_site_fract_z
_atom_site_B_iso_or_equiv
_atom_site_occupancy
Rb1 Rb1+ 4 a 0.7837(1) 0.688 0.3850(1) 1.65 1.
Rb2 Rb1+ 4 a 0.6925(1) 0.9396(1) 0.1055(1) 1.48 1.
Ti1 Ti4+ 4 a 0.4998(2) 0.0138(2) 0.3728(1) 0.63 1.
Ti2 Ti4+ 4 a 0.2678(2) 0.7620(1) 0.2482(1) 0.66 1.
P1 P5+ 4 a 0.3329(2) 0.7560(2) 0.4999(1) 0.63 1.
P2 P5+ 4 a 0.5013(3) 0.5017(2) 0.1801(1) 0.59 1.
O1 O2- 4 a 0.4800(8) 0.8673(5) 0.4864(4) 0.9 1.
O2 O2- 4 a 0.4615(9) 0.6335(4) 0.5136(4) 0.8 1.
O3 O2- 4 a 0.2016(8) 0.7348(5) 0.4028(3) 0.8 1.
O4 O2- 4 a 0.1939(8) 0.7747(5) 0.5942(4) 0.9 1.
O5 O2- 4 a 0.3108(8) 0.4719(5) 0.1142(4) 1.1 1.
O6 O2- 4 a 0.6904(8) 0.5300(5) 0.1128(4) 1.1 1.
O7 O2- 4 a 0.5433(8) 0.3880(5) 0.2506(4) 1. 1.
O8 O2- 4 a 0.4576(8) 0.6158(5) 0.2522(4) 0.8 1.
O9 O2- 4 a -.0393(8) 0.3709(5) 0.2221(4) 0.8 1.
O10 O2- 4 a 0.0442(9) 0.6243(5) 0.2232(4) 1. 1.
#End of TTdata_39713-ICSD