
#(C) 2020 by FIZ Karlsruhe - Leibniz Institute for Information Infrastructure.  All rights reserved.
data_39716-ICSD
_database_code_ICSD 39716
_audit_creation_date 1994-06-30
_audit_update_record 2010-02-01
_chemical_name_common 'Gadolinium tetracalcium oxide tris(borate)'
_chemical_formula_structural 'Gd Ca4 O (B O3)3'
_chemical_formula_sum 'B3 Ca4 Gd1 O10'
_chemical_name_structure_type Ca5(BO3)3F
_exptl_crystal_density_diffrn 3.74
_citation_title

;
Crystal structures of double oxoborates Ln Ca4O (B O3)3 (Ln= Gd, Tb, Lu) and
Eu2 Ca O (B O3)2
;
loop_
_citation_id
_citation_journal_full
_citation_year
_citation_journal_volume
_citation_page_first
_citation_page_last
_citation_journal_id_ASTM
primary 'Zhurnal Neorganicheskoi Khimii' 1993 38 917 920 ZNOKAQ
loop_
_citation_author_citation_id
_citation_author_name
primary 'Ilyukhin, A.B.'
primary 'Dzhurinskii, B.F.'
_cell_length_a 8.104(1)
_cell_length_b 16.030(3)
_cell_length_c 3.5584(3)
_cell_angle_alpha 90.
_cell_angle_beta 101.250(8)
_cell_angle_gamma 90.
_cell_volume 453.38
_cell_formula_units_Z 2
_space_group_name_H-M_alt 'C 1 m 1'
_space_group_IT_number 8
loop_
_space_group_symop_id
_space_group_symop_operation_xyz
1 'x, -y, z'
2 'x, y, z'
3 'x+1/2, -y+1/2, z'
4 'x+1/2, y+1/2, z'
loop_
_atom_type_symbol
_atom_type_oxidation_number
Gd3+ 3
Ca2+ 2
Gd3+ 3
Ca2+ 2
O2- -2
B3+ 3
loop_
_atom_site_label
_atom_site_type_symbol
_atom_site_symmetry_multiplicity
_atom_site_Wyckoff_symbol
_atom_site_fract_x
_atom_site_fract_y
_atom_site_fract_z
_atom_site_U_iso_or_equiv
_atom_site_occupancy
Gd1 Gd3+ 2 a 0 0 0 0.00680(4) 0.86
Ca1 Ca2+ 2 a 0 0 0 0.00680(4) 0.14
Gd2 Gd3+ 4 b 0.14232(5) 0.38741(3) 0.3283(1) 0.00740(8) 0.07
Ca2 Ca2+ 4 b 0.14232(5) 0.38741(3) 0.3283(1) 0.00740(8) 0.93
Ca3 Ca2+ 4 b 0.26091(6) 0.18061(3) 0.6529(2) 0.0093(1) 1.
O1 O2- 2 a 0.8252(4) 0 0.4175(10) 0.0082(6) 1.
O2 O2- 4 b 0.4614(3) -.0743(1) 0.7492(6) 0.0114(4) 1.
O3 O2- 2 a 0.2032(4) 0 0.6043(10) 0.0143(8) 1.
O4 O2- 4 b 0.0859(2) 0.1434(1) 0.0766(6) 0.0105(4) 1.
O5 O2- 4 b 0.9675(3) 0.2695(1) 0.2746(7) 0.0137(5) 1.
O6 O2- 4 b 0.7917(2) 0.1728(1) -.1149(6) 0.0128(4) 1.
B1 B3+ 2 a 0.3764(4) 0 0.7011(1) 0.0067(7) 1.
B2 B3+ 4 b 0.9491(3) 0.1947(2) 0.0798(8) 0.0077(5) 1.
#End of TTdata_39716-ICSD