
#(C) 2020 by FIZ Karlsruhe - Leibniz Institute for Information Infrastructure.  All rights reserved.
data_39735-ICSD
_database_code_ICSD 39735
_audit_creation_date 1994-06-30
_chemical_name_common 'Potassium germanium oxide phosphate'
_chemical_formula_structural 'K Ge O P O4'
_chemical_formula_sum 'Ge1 K1 O5 P1'
_chemical_name_structure_type KTiOPO4#KFePO4F
_exptl_crystal_density_diffrn 3.72
_citation_title
'Ferroelectric phase transition and crystal structure of KGeOPO4'
loop_
_citation_id
_citation_journal_full
_citation_year
_citation_journal_volume
_citation_page_first
_citation_page_last
_citation_journal_id_ASTM
primary Kristallografiya 1993 38 147 151 KRISAJ
loop_
_citation_author_citation_id
_citation_author_name
primary 'Voronkova, V.I.'
primary 'Yanovskii, V.K.'
primary 'Sorokina, N.I.'
primary 'Verin, I.A.'
primary 'Simonov, V.I.'
_cell_length_a 12.6013(10)
_cell_length_b 6.3051(5)
_cell_length_c 10.0031(8)
_cell_angle_alpha 90.
_cell_angle_beta 90.
_cell_angle_gamma 90.
_cell_volume 794.77
_cell_formula_units_Z 8
_space_group_name_H-M_alt 'P n a 21'
_space_group_IT_number 33
loop_
_space_group_symop_id
_space_group_symop_operation_xyz
1 'x+1/2, -y+1/2, z'
2 '-x+1/2, y+1/2, z+1/2'
3 '-x, -y, z+1/2'
4 'x, y, z'
loop_
_atom_type_symbol
_atom_type_oxidation_number
Ge4+ 4
P5+ 5
K1+ 1
O2- -2
loop_
_atom_site_label
_atom_site_type_symbol
_atom_site_symmetry_multiplicity
_atom_site_Wyckoff_symbol
_atom_site_fract_x
_atom_site_fract_y
_atom_site_fract_z
_atom_site_B_iso_or_equiv
_atom_site_occupancy
Ge1 Ge4+ 4 a 0.37080(1) 0.49811(3) 0 0.36(1) 1.
Ge2 Ge4+ 4 a 0.24882(1) 0.25364(3) 0.25103(3) 0.34(1) 1.
P1 P5+ 4 a 0.50201(2) 0.33162(5) 0.25053(4) 0.34(2) 1.
P2 P5+ 4 a 0.17902(2) 0.50352(5) 0.50233(4) 0.38(3) 1.
K1 K1+ 4 a 0.3824(1) 0.7809(1) 0.3205(1) 1.46(4) 1.
K2 K1+ 4 a 0.1090(1) 0.6920(1) 0.0729(1) 1.34(4) 1.
O1 O2- 4 a 0.4850(1) 0.4814(2) 0.1312(1) 0.74(9) 1.
O2 O2- 4 a 0.5170(1) 0.4736(2) 0.3755(1) 0.66(5) 1.
O3 O2- 4 a 0.4041(1) 0.1929(2) 0.2746(1) 0.61(5) 1.
O4 O2- 4 a 0.5935(1) 0.1879(2) 0.2272(1) 0.66(7) 1.
O5 O2- 4 a 0.2287(1) 0.0474(2) 0.3764(1) 0.6(1) 1.
O6 O2- 4 a 0.2234(1) -.0348(2) 0.6340(1) 0.58(3) 1.
O7 O2- 4 a 0.1088(1) 0.3115(2) 0.5335(1) 0.62(5) 1.
O8 O2- 4 a 0.1093(1) 0.6962(2) 0.4699(1) 0.73(8) 1.
O9 O2- 4 a 0.2537(1) 0.5429(2) 0.6214(1) 0.72(4) 1.
O10 O2- 4 a 0.2562(1) 0.4599(2) 0.3870(1) 0.74(10) 1.
#End of TTdata_39735-ICSD