
#(C) 2020 by FIZ Karlsruhe - Leibniz Institute for Information Infrastructure.  All rights reserved.
data_39869-ICSD
_database_code_ICSD 39869
_audit_creation_date 1996-04-22
_audit_update_record 2012-08-01
_chemical_name_common 'Potassium niobate'
_chemical_formula_structural 'K (Nb O3)'
_chemical_formula_sum 'K1 Nb1 O3'
_chemical_name_structure_type KNbO3
_exptl_crystal_density_diffrn 4.62
_citation_title

;
Structural disorder in K Nb O3 crystal from X-ray diffraction and EXAFS
spectroscopy
;
loop_
_citation_id
_citation_journal_full
_citation_year
_citation_journal_volume
_citation_page_first
_citation_page_last
_citation_journal_id_ASTM
primary 'Crystallography Reports' 1995 40 466 471 CYSTE3
loop_
_citation_author_citation_id
_citation_author_name
primary 'Shuvaeva, V.A.'
primary 'Antipin, M.Yu.'
_cell_length_a 3.971(1)
_cell_length_b 5.697(1)
_cell_length_c 5.723(1)
_cell_angle_alpha 90.
_cell_angle_beta 90.
_cell_angle_gamma 90.
_cell_volume 129.47
_cell_formula_units_Z 2
_space_group_name_H-M_alt 'A m m 2'
_space_group_IT_number 38
loop_
_space_group_symop_id
_space_group_symop_operation_xyz
1 'x, -y, z'
2 '-x, y, z'
3 '-x, -y, z'
4 'x, y, z'
5 'x, -y+1/2, z+1/2'
6 '-x, y+1/2, z+1/2'
7 '-x, -y+1/2, z+1/2'
8 'x, y+1/2, z+1/2'
loop_
_atom_type_symbol
_atom_type_oxidation_number
Nb5+ 5
K1+ 1
O2- -2
loop_
_atom_site_label
_atom_site_type_symbol
_atom_site_symmetry_multiplicity
_atom_site_Wyckoff_symbol
_atom_site_fract_x
_atom_site_fract_y
_atom_site_fract_z
_atom_site_B_iso_or_equiv
_atom_site_occupancy
Nb1 Nb5+ 4 c 0.010(1) 0 0 . 0.5
K1 K1+ 2 b 0.5 0 0.5156(3) . 1.
O1 O2- 2 b 0.5 0 0.0357(3) . 1.
O2 O2- 4 d 0 0.2527(2) 0.2841(2) . 1.
loop_
_atom_site_aniso_label
_atom_site_aniso_type_symbol
_atom_site_aniso_U_11
_atom_site_aniso_U_22
_atom_site_aniso_U_33
_atom_site_aniso_U_12
_atom_site_aniso_U_13
_atom_site_aniso_U_23
Nb1 Nb5+ 0.053(4) 0.0398(5) 0.0331(8) 0 0 0
K1 K1+ 0.1027(13) 0.0995(14) 0.0813(40) 0 0 0
O1 O2- 0.0588(40) 0.1193(52) 0.0848(53) 0 0 0
O2 O2- 0.1011(36) 0.0967(37) 0.0669(43) 0 0 -.0193(35)
#End of TTdata_39869-ICSD