
#(C) 2020 by FIZ Karlsruhe - Leibniz Institute for Information Infrastructure.  All rights reserved.
data_39929-ICSD
_database_code_ICSD 39929
_audit_creation_date 1996-10-14
_audit_update_record 2010-02-01
_chemical_name_common 'Dilutetium digermanate'
_chemical_formula_structural 'Lu2 (Ge2 O7)'
_chemical_formula_sum 'Ge2 Lu2 O7'
_chemical_name_structure_type Er2Ge2O7
_exptl_crystal_density_diffrn 7.37
_citation_title 'Lutetium digermanate Lu2 Ge2 O7'
loop_
_citation_id
_citation_journal_full
_citation_year
_citation_journal_volume
_citation_page_first
_citation_page_last
_citation_journal_id_ASTM
primary 'Zhurnal Neorganicheskoi Khimii' 1995 40 1449 1451 ZNOKAQ
loop_
_citation_author_citation_id
_citation_author_name
primary 'Palkina, K.K.'
primary 'Kuz'mina, N.E. (Kuzmina, N.E.)'
primary 'Dzhurinskii, B.F.'
_cell_length_a 6.702(5)
_cell_length_b 6.702(5)
_cell_length_c 12.175(11)
_cell_angle_alpha 90.
_cell_angle_beta 90.
_cell_angle_gamma 90.
_cell_volume 546.86
_cell_formula_units_Z 4
_space_group_name_H-M_alt 'P 41 21 2'
_space_group_IT_number 92
loop_
_space_group_symop_id
_space_group_symop_operation_xyz
1 'x+1/2, -y+1/2, -z+3/4'
2 '-x+1/2, y+1/2, -z+1/4'
3 '-y, -x, -z+1/2'
4 'y, x, -z'
5 'y+1/2, -x+1/2, z+3/4'
6 '-y+1/2, x+1/2, z+1/4'
7 '-x, -y, z+1/2'
8 'x, y, z'
loop_
_atom_type_symbol
_atom_type_oxidation_number
Lu3+ 3
Ge4+ 4
O2- -2
loop_
_atom_site_label
_atom_site_type_symbol
_atom_site_symmetry_multiplicity
_atom_site_Wyckoff_symbol
_atom_site_fract_x
_atom_site_fract_y
_atom_site_fract_z
_atom_site_B_iso_or_equiv
_atom_site_occupancy
Lu1 Lu3+ 8 b 0.1262(2) 0.3547(3) 0.1144(1) 0.10(3) 1.
Ge1 Ge4+ 8 b 0.6007(5) 0.3495(6) 0.1177(2) 0.13(6) 1.
O1 O2- 8 b -.182(4) 0.360(7) 0.042(2) 1.1(7) 1.
O2 O2- 8 b 0.061(5) 0.673(5) 0.176(2) 1.6(7) 1.
O3 O2- 8 b 0.410(4) 0.540(6) 0.120(2) 0.9(7) 1.
O4 O2- 4 a 0.7057 0.2943 0.25 . 1.
#End of TTdata_39929-ICSD