
#(C) 2020 by FIZ Karlsruhe - Leibniz Institute for Information Infrastructure.  All rights reserved.
data_4013-ICSD
_database_code_ICSD 4013
_audit_creation_date 1980-01-01
_audit_update_record 2012-08-01
_chemical_name_common (Trichlorogermyl)tetracarbonylcobalt
_chemical_formula_structural 'Cl3 Ge Co (C O)4'
_chemical_formula_sum 'C4 Cl3 Co1 Ge1 O4'
_exptl_crystal_density_diffrn 2.15
_citation_title

;
The crystal and molecular structure of trichlorogermyl-cobalt tetracarbonyl, 
Cl3 Ge Co (C O)4
;
loop_
_citation_id
_citation_journal_full
_citation_year
_citation_journal_volume
_citation_page_first
_citation_page_last
_citation_journal_id_ASTM
primary 'Journal of Organometallic Chemistry' 1974 80 363 368 JORCAI
loop_
_citation_author_citation_id
_citation_author_name
primary 'van der Berg, G.C.'
primary 'Oskam, A.'
primary 'Olie, K.'
_cell_length_a 26.238(3)
_cell_length_b 6.623(5)
_cell_length_c 12.969(2)
_cell_angle_alpha 90.
_cell_angle_beta 106.2(2)
_cell_angle_gamma 90.
_cell_volume 2164.19
_cell_formula_units_Z 8
_space_group_name_H-M_alt 'C 1 c 1'
_space_group_IT_number 9
loop_
_space_group_symop_id
_space_group_symop_operation_xyz
1 'x, -y, z+1/2'
2 'x, y, z'
3 'x+1/2, -y+1/2, z+1/2'
4 'x+1/2, y+1/2, z'
loop_
_atom_type_symbol
_atom_type_oxidation_number
Ge0+ 0
Co0+ 0
Cl0+ 0
C2+ 2
O2- -2
Ge0+ 0
Co0+ 0
Cl0+ 0
C2+ 2
O2- -2
loop_
_atom_site_label
_atom_site_type_symbol
_atom_site_symmetry_multiplicity
_atom_site_Wyckoff_symbol
_atom_site_fract_x
_atom_site_fract_y
_atom_site_fract_z
_atom_site_U_iso_or_equiv
_atom_site_occupancy
Ge1 Ge0+ 4 a 0.5608 0.6275(6) 0.3982 . 1.
Co1 Co0+ 4 a 0.4969(2) 0.4704(8) 0.4599(5) . 1.
Cl1 Cl0+ 4 a 0.6296(4) 0.7129(17) 0.5249(8) . 1.
Cl2 Cl0+ 4 a 0.5365(4) 0.8949(15) 0.3131(9) . 1.
Cl3 Cl0+ 4 a 0.5916(4) 0.4456(15) 0.2916(9) . 1.
C1 C2+ 4 a 0.460(2) 0.443(5) 0.318(3) 0.049(8) 1.
C2 C2+ 4 a 0.448(1) 0.343(5) 0.505(3) 0.042(7) 1.
C3 C2+ 4 a 0.487(1) 0.705(6) 0.520(3) 0.047(8) 1.
C4 C2+ 4 a 0.546(1) 0.292(6) 0.522(3) 0.043(7) 1.
O1 O2- 4 a 0.442(1) 0.418(5) 0.229(3) 0.077(9) 1.
O2 O2- 4 a 0.415(1) 0.248(5) 0.530(3) 0.065(8) 1.
O3 O2- 4 a 0.483(1) 0.856(6) 0.560(3) 0.081(9) 1.
O4 O2- 4 a 0.580(1) 0.187(4) 0.568(2) 0.055(6) 1.
Ge2 Ge0+ 4 a 0.3101(2) 0.0402(5) 0.1415(4) . 1.
Co2 Co0+ 4 a 0.2477(2) 0.2034(7) 0.2083(4) . 1.
Cl4 Cl0+ 4 a 0.3808(4) -.0549(17) 0.2644(8) . 1.
Cl5 Cl0+ 4 a 0.3404(4) 0.2106(16) 0.0336(7) . 1.
Cl6 Cl0+ 4 a 0.2803(5) -.2321(16) 0.0554(10) . 1.
C5 C2+ 4 a 0.201(1) 0.326(4) 0.268(2) 0.031(6) 1.
C6 C2+ 4 a 0.215(1) 0.270(5) 0.071(2) 0.034(6) 1.
C7 C2+ 4 a 0.238(1) -.035(5) 0.255(2) 0.032(6) 1.
C8 C2+ 4 a 0.303(1) 0.352(4) 0.288(2) 0.030(6) 1.
O5 O2- 4 a 0.169(1) 0.414(5) 0.293(3) 0.064(8) 1.
O6 O2- 4 a 0.190(1) 0.320(5) -.013(2) 0.064(7) 1.
O7 O2- 4 a 0.231(1) -.197(5) 0.289(3) 0.068(8) 1.
O8 O2- 4 a 0.337(1) 0.462(4) 0.326(2) 0.057(7) 1.
loop_
_atom_site_aniso_label
_atom_site_aniso_type_symbol
_atom_site_aniso_U_11
_atom_site_aniso_U_22
_atom_site_aniso_U_33
_atom_site_aniso_U_12
_atom_site_aniso_U_13
_atom_site_aniso_U_23
Ge1 Ge0+ 0.022(2) 0.042(2) 0.031(2) 0.006(2) 0.011(1) -.003(2)
Co1 Co0+ 0.025(2) 0.041(3) 0.033(2) 0.010(2) 0.016(2) -.002(2)
Cl1 Cl0+ 0.026(4) 0.073(6) 0.059(5) -.012(4) 0.001(3) 0.013(5)
Cl2 Cl0+ 0.061(6) 0.051(5) 0.075(7) 0.012(4) 0.034(5) 0.038(5)
Cl3 Cl0+ 0.054(5) 0.060(6) 0.072(6) -.001(4) 0.040(5) -.010(5)
Ge2 Ge0+ 0.019(1) 0.037(2) 0.028(2) -.001(1) 0.011(1) -.001(1)
Co2 Co0+ 0.024(2) 0.037(2) 0.033(2) -.009(2) 0.018(2) -.003(2)
Cl4 Cl0+ 0.037(4) 0.078(7) 0.052(5) 0.018(4) 0.011(4) 0.015(5)
Cl5 Cl0+ 0.037(4) 0.072(6) 0.047(4) -.004(4) 0.021(4) 0.013(4)
Cl6 Cl0+ 0.064(6) 0.055(6) 0.077(7) -.009(5) 0.037(5) -.026(5)
#End of TTdata_4013-ICSD