
#(C) 2020 by FIZ Karlsruhe - Leibniz Institute for Information Infrastructure.  All rights reserved.
data_40265-ICSD
_database_code_ICSD 40265
_audit_creation_date 1999-11-30
_audit_update_record 2012-02-01
_chemical_name_common 'Dilithium tin tellurate'
_chemical_formula_structural 'Li2 Sn (Te O6)'
_chemical_formula_sum 'Li2 O6 Sn1 Te1'
_chemical_name_structure_type Li2TiTeO6
_exptl_crystal_density_diffrn 5.43
_citation_title

;
Ordering phenomena in the Li Sb O3 type structure: The new mixed tellurates
Li2 Ti Te O6 and Li2 Sn Te O6
;
loop_
_citation_id
_citation_journal_full
_citation_year
_citation_journal_volume
_citation_page_first
_citation_page_last
_citation_journal_id_ASTM
primary 'Journal of Solid State Chemistry' 1989 82 272 278 JSSCBI
loop_
_citation_author_citation_id
_citation_author_name
primary 'Choisnet, J.'
primary 'Rulmont, A.'
primary 'Tarte, P.'
_cell_length_a 5.192(2)
_cell_length_b 4.927(2)
_cell_length_c 8.513(5)
_cell_angle_alpha 90.
_cell_angle_beta 90.
_cell_angle_gamma 90.
_cell_volume 217.77
_cell_formula_units_Z 2
_space_group_name_H-M_alt 'P n n 2'
_space_group_IT_number 34
loop_
_space_group_symop_id
_space_group_symop_operation_xyz
1 'x+1/2, -y+1/2, z+1/2'
2 '-x+1/2, y+1/2, z+1/2'
3 '-x, -y, z'
4 'x, y, z'
loop_
_atom_type_symbol
_atom_type_oxidation_number
Li1+ 1
Te6+ 6
Sn4+ 4
O2- -2
loop_
_atom_site_label
_atom_site_type_symbol
_atom_site_symmetry_multiplicity
_atom_site_Wyckoff_symbol
_atom_site_fract_x
_atom_site_fract_y
_atom_site_fract_z
_atom_site_B_iso_or_equiv
_atom_site_occupancy
Li1 Li1+ 2 a 0 0 0.726 1. 1.
Li2 Li1+ 2 b 0 0.5 0.78 1. 1.
Te1 Te6+ 2 a 0 0 0.1014 1. 1.
Sn1 Sn4+ 2 b 0 0.5 0.4027 0.9 1.
O1 O2- 4 c 0.18 0.252 0.253 2. 1.
O2 O2- 4 c 0.663 0.208 0.079 1.3 1.
O3 O2- 4 c 0.836 0.792 0.928 1.1 1.
#End of TTdata_40265-ICSD