
#(C) 2020 by FIZ Karlsruhe - Leibniz Institute for Information Infrastructure.  All rights reserved.
data_404329-ICSD
_database_code_ICSD 404329
_audit_creation_date 1996-10-14
_audit_update_record 2013-02-01
_chemical_name_common 'Hexalead arsenate(V) tetraarsenato(V)borate'
_chemical_formula_structural 'Pb6 (As O4) (B (As O4)4)'
_chemical_formula_sum 'As5 B1 O20 Pb6'
_exptl_crystal_density_diffrn 6.48
_citation_title

;
Pb6 (As O4) (B (As O4)4) - ein neuartiger Kristallstrukturtyp im System PbO/B2
O3/As2 O5 mit einem Beitrag ueber Pb (B As O5)
;
loop_
_citation_id
_citation_journal_full
_citation_year
_citation_journal_volume
_citation_page_first
_citation_page_last
_citation_journal_id_ASTM
primary 'Zeitschrift fuer Naturforschung, B: A Journal of Chemical Sciences'
1996 51 313 318 ZNBSEN
loop_
_citation_author_citation_id
_citation_author_name
primary 'Bluhm, K.'
primary 'Park, C.-H.'
_cell_length_a 7.1541(11)
_cell_length_b 7.1541(11)
_cell_length_c 9.762(3)
_cell_angle_alpha 90.
_cell_angle_beta 90.
_cell_angle_gamma 90.
_cell_volume 499.63
_cell_formula_units_Z 1
_space_group_name_H-M_alt 'P -4'
_space_group_IT_number 81
loop_
_space_group_symop_id
_space_group_symop_operation_xyz
1 '-y, x, -z'
2 'y, -x, -z'
3 '-x, -y, z'
4 'x, y, z'
loop_
_atom_type_symbol
_atom_type_oxidation_number
Pb2+ 2
B3+ 3
As5+ 5
O2- -2
loop_
_atom_site_label
_atom_site_type_symbol
_atom_site_symmetry_multiplicity
_atom_site_Wyckoff_symbol
_atom_site_fract_x
_atom_site_fract_y
_atom_site_fract_z
_atom_site_B_iso_or_equiv
_atom_site_occupancy
Pb1 Pb2+ 4 h 0.1982(2) 0.1981(2) 0.32583(9) . 1.
Pb2 Pb2+ 2 g 0.5 0 -.0001(2) . 1.
B1 B3+ 1 d 0.5 0.5 0.5 . 1.
As1 As5+ 4 h 0.7014(5) 0.2980(5) 0.2884(2) . 1.
As2 As5+ 1 a 1 0 0 . 1.
O1 O2- 4 h 1.1342(48) 0.1485(65) 0.0923(17) . 1.
O2 O2- 4 h 0.8626(39) 0.1383(35) 0.3464(24) . 1.
O3 O2- 4 h 0.8371(62) 0.4946(45) 0.2613(32) . 1.
O4 O2- 4 h 0.6729(59) 0.4492(48) 0.4210(29) . 1.
O5 O2- 4 h 0.567(10) 0.201(11) 0.1616(33) . 1.
loop_
_atom_site_aniso_label
_atom_site_aniso_type_symbol
_atom_site_aniso_U_11
_atom_site_aniso_U_22
_atom_site_aniso_U_33
_atom_site_aniso_U_12
_atom_site_aniso_U_13
_atom_site_aniso_U_23
Pb1 Pb2+ 0.0161(8) 0.0209(8) 0.0199(4) -.0077(6) -.0017(5) -.0022(5)
Pb2 Pb2+ 0.0193(9) 0.0179(9) 0.0156(6) 0.0031(10) 0 0
B1 B3+ 0.034(23) 0.034(23) 0.002(16) 0 0 0
As1 As5+ 0.009(2) 0.014(2) 0.0139(8) -.0027(15) 0.0001(9) -.0025(10)
As2 As5+ 0.011(2) 0.011(2) 0.014(2) 0 0 0
O1 O2- 0.091(24) 0.200(37) 0.022(8) 0.101(23) -.026(12) 0.054(15)
O2 O2- 0.073(20) 0.022(13) 0.084(15) 0.039(13) -.002(17) 0.000(14)
O3 O2- 0.128(31) 0.037(17) 0.080(18) -.023(23) 0.009(20) -.006(15)
O4 O2- 0.108(29) 0.066(24) 0.083(19) 0.010(24) 0.01(2) -.007(16)
O5 O2- 0.248(73) 0.44(10) 0.040(18) 0.033(77) 0.016(34) 0.035(47)
#End of TTdata_404329-ICSD