
#(C) 2020 by FIZ Karlsruhe - Leibniz Institute for Information Infrastructure.  All rights reserved.
data_404328-ICSD
_database_code_ICSD 404328
_audit_creation_date 1996-10-14
_chemical_name_common 'Lead pentaoxoarsenoborate'
_chemical_formula_structural 'Pb (As B O5)'
_chemical_formula_sum 'As1 B1 O5 Pb1'
_chemical_name_structure_type CeBSiO5
_exptl_crystal_density_diffrn 6.1
_citation_title

;
Pb6 (As O4) (B (As O4)4) - ein neuartiger Kristallstrukturtyp im System PbO/B2
O3/As2 O5 mit einem Beitrag ueber Pb (B As O5)
;
loop_
_citation_id
_citation_journal_full
_citation_year
_citation_journal_volume
_citation_page_first
_citation_page_last
_citation_journal_id_ASTM
primary 'Zeitschrift fuer Naturforschung, B: A Journal of Chemical Sciences'
1996 51 313 318 ZNBSEN
loop_
_citation_author_citation_id
_citation_author_name
primary 'Bluhm, K.'
primary 'Park, C.-H.'
_cell_length_a 7.1223(11)
_cell_length_b 7.1223(11)
_cell_length_c 6.935(2)
_cell_angle_alpha 90.
_cell_angle_beta 90.
_cell_angle_gamma 120.
_cell_volume 304.66
_cell_formula_units_Z 3
_space_group_name_H-M_alt 'P 31'
_space_group_IT_number 144
loop_
_space_group_symop_id
_space_group_symop_operation_xyz
1 '-x+y, -x, z+2/3'
2 '-y, x-y, z+1/3'
3 'x, y, z'
loop_
_atom_type_symbol
_atom_type_oxidation_number
Pb2+ 2
B3+ 3
As5+ 5
O2- -2
loop_
_atom_site_label
_atom_site_type_symbol
_atom_site_symmetry_multiplicity
_atom_site_Wyckoff_symbol
_atom_site_fract_x
_atom_site_fract_y
_atom_site_fract_z
_atom_site_B_iso_or_equiv
_atom_site_occupancy
Pb1 Pb2+ 3 a 0.66739(10) 0.73158(10) 0.2118 . 1.
B1 B3+ 3 a 0.7741(43) 0.4274(43) 0.5626(30) . 1.
As1 As5+ 3 a 0.2608(3) -.0702(3) 0.0445(17) . 1.
O1 O2- 3 a 0.4858(25) -.0001(23) 0.1894(22) . 1.
O2 O2- 3 a 0.2057(31) -.2671(26) -.1061(25) . 1.
O3 O2- 3 a 0.3427(26) 0.1477(28) -.1059(20) . 1.
O4 O2- 3 a 0.0767(25) -.1031(35) 0.2015(24) . 1.
O5 O2- 3 a 0.6170(23) 0.2795(26) 0.4259(23) . 1.
loop_
_atom_site_aniso_label
_atom_site_aniso_type_symbol
_atom_site_aniso_U_11
_atom_site_aniso_U_22
_atom_site_aniso_U_33
_atom_site_aniso_U_12
_atom_site_aniso_U_13
_atom_site_aniso_U_23
Pb1 Pb2+ 0.0142(3) 0.0154(4) 0.0157(2) 0.0073(3) -.0013(3) -.0006(3)
B1 B3+ 0.024(10) 0.018(9) 0.015(7) 0.011(8) -.009(7) -.008(7)
As1 As5+ 0.0090(8) 0.0095(8) 0.0112(5) 0.0027(7) -.0012(8) -.0015(8)
O1 O2- 0.019(7) 0.015(6) 0.029(6) -.010(5) -.002(6) -.006(5)
O2 O2- 0.039(9) 0.023(7) 0.037(7) 0.016(7) 0.007(6) -.001(6)
O3 O2- 0.033(8) 0.026(8) 0.016(5) 0.001(6) -.005(5) 0.005(5)
O4 O2- 0.015(6) 0.061(12) 0.028(6) 0.008(8) 0.002(6) -.002(7)
O5 O2- 0.024(7) 0.038(9) 0.037(7) 0.012(6) 0.003(5) 0.001(6)
#End of TTdata_404328-ICSD