
#(C) 2020 by FIZ Karlsruhe - Leibniz Institute for Information Infrastructure.  All rights reserved.
data_404439-ICSD
_database_code_ICSD 404439
_audit_creation_date 1997-11-10
_chemical_name_common 'Barium boroarsenate(V)'
_chemical_formula_structural 'Ba (As B O5)'
_chemical_formula_sum 'As1 B1 Ba1 O5'
_chemical_name_structure_type CeBSiO5
_exptl_crystal_density_diffrn 4.65
_citation_title

;
Zur Synthese und Kristallstruktur von Bariumboroarsenat Ba (B As O5) mit einem
Beitrag ueber Bariumorthoarsenat Ba3 (As O4)2
;
loop_
_citation_id
_citation_journal_full
_citation_year
_citation_journal_volume
_citation_page_first
_citation_page_last
_citation_journal_id_ASTM
primary 'Zeitschrift fuer Naturforschung, B: A Journal of Chemical Sciences'
1996 51 722 726 ZNBSEN
loop_
_citation_author_citation_id
_citation_author_name
primary 'Bluhm, K.'
primary 'Park, C.-H.'
_cell_length_a 7.2666(6)
_cell_length_b 7.2666(6)
_cell_length_c 7.1063(5)
_cell_angle_alpha 90.
_cell_angle_beta 90.
_cell_angle_gamma 120.
_cell_volume 324.97
_cell_formula_units_Z 3
_space_group_name_H-M_alt 'P 31'
_space_group_IT_number 144
loop_
_space_group_symop_id
_space_group_symop_operation_xyz
1 '-x+y, -x, z+2/3'
2 '-y, x-y, z+1/3'
3 'x, y, z'
loop_
_atom_type_symbol
_atom_type_oxidation_number
Ba2+ 2
B3+ 3
As5+ 5
O2- -2
loop_
_atom_site_label
_atom_site_type_symbol
_atom_site_symmetry_multiplicity
_atom_site_Wyckoff_symbol
_atom_site_fract_x
_atom_site_fract_y
_atom_site_fract_z
_atom_site_B_iso_or_equiv
_atom_site_occupancy
Ba1 Ba2+ 3 a 0.2749(3) 0.3334(3) 0.1700(4) . 1.
B1 B3+ 3 a 0.5773(44) 0.2446(41) -.1668(35) . 1.
As1 As5+ 3 a 0.6669(5) -.0639(4) 0.0052(13) . 1.
O1 O2- 3 a 0.8102(29) 0.1537(28) 0.1477(20) . 1.
O2 O2- 3 a 0.8150(31) -.1046(29) -.1502(33) . 1.
O3 O2- 3 a 0.5197(26) 0.0122(29) -.1399(20) . 1.
O4 O2- 3 a 0.5192(34) -.2505(29) 0.1521(21) . 1.
O5 O2- 3 a 0.6987(25) 0.3364(32) -.3281(23) . 1.
loop_
_atom_site_aniso_label
_atom_site_aniso_type_symbol
_atom_site_aniso_U_11
_atom_site_aniso_U_22
_atom_site_aniso_U_33
_atom_site_aniso_U_12
_atom_site_aniso_U_13
_atom_site_aniso_U_23
Ba1 Ba2+ 0.0124(11) 0.0102(9) 0.0098(5) 0.0068(10) 0.0021(8) 0.0016(8)
B1 B3+ 0.01(1) 0.003(9) 0.018(9) 0.012(9) 0.006(8) 0.004(7)
As1 As5+ 0.010(2) 0.012(2) 0.0087(9) 0.007(2) 0.0004(13) -.001(2)
O1 O2- 0.028(9) 0.026(9) 0.018(7) 0.018(8) -.019(6) -.023(6)
O2 O2- 0.031(11) 0.014(9) 0.087(16) 0.004(8) 0.032(11) -.003(9)
O3 O2- 0.014(8) 0.034(10) 0.019(7) 0.013(7) -.010(6) -.018(7)
O4 O2- 0.062(15) 0.024(10) 0.008(6) 0.004(10) -.004(7) -.001(6)
O5 O2- 0.014(8) 0.050(11) 0.026(7) 0.027(9) 0.007(6) 0.007(7)
#End of TTdata_404439-ICSD