
#(C) 2020 by FIZ Karlsruhe - Leibniz Institute for Information Infrastructure.  All rights reserved.
data_4074-ICSD
_database_code_ICSD 4074
_audit_creation_date 1980-01-01
_audit_update_record 1991-07-02
_chemical_name_common 'Cesium octaiodotrimercurate'
_chemical_formula_structural 'Cs2 (Hg3 I8)'
_chemical_formula_sum 'Cs2 Hg3 I8'
_exptl_crystal_density_diffrn 5.31
_citation_title
'The structure of the complex anion Hg3 I8(II) in the crystal Cs2 (Hg3 I8)'
loop_
_citation_id
_citation_journal_full
_citation_year
_citation_journal_volume
_citation_page_first
_citation_page_last
_citation_journal_id_ASTM
primary 'Koordinatsionnaya Khimiya' 1975 1 670 674 KOKHDC
loop_
_citation_author_citation_id
_citation_author_name
primary 'Fedorov, P.M.'
primary 'Pakhomov, V.I.'
_cell_length_a 7.43(1)
_cell_length_b 21.70(3)
_cell_length_c 7.68(1)
_cell_angle_alpha 90.
_cell_angle_beta 108.(1)
_cell_angle_gamma 90.
_cell_volume 1177.65
_cell_formula_units_Z 2
_space_group_name_H-M_alt 'C 1 m 1'
_space_group_IT_number 8
loop_
_space_group_symop_id
_space_group_symop_operation_xyz
1 'x, -y, z'
2 'x, y, z'
3 'x+1/2, -y+1/2, z'
4 'x+1/2, y+1/2, z'
loop_
_atom_type_symbol
_atom_type_oxidation_number
Hg2+ 2
I1- -1
Cs1+ 1
loop_
_atom_site_label
_atom_site_type_symbol
_atom_site_symmetry_multiplicity
_atom_site_Wyckoff_symbol
_atom_site_fract_x
_atom_site_fract_y
_atom_site_fract_z
_atom_site_B_iso_or_equiv
_atom_site_occupancy
Hg1 Hg2+ 2 a 0 0 0 3.1 1.
Hg2 Hg2+ 4 b 0.889(1) 0.1950(3) 0.915(1) 2.8 1.
I1 I1- 2 a 0.336(2) 0 0.233(2) 2.6 1.
I2 I1- 2 a 0.882(2) 0 0.631(2) 3.7 1.
I3 I1- 4 b 0.286(1) 0.1931(4) 0.057(2) 2.5 1.
I4 I1- 4 b 0.727(1) 0.1952(4) 0.556(2) 3.3 1.
I5 I1- 4 b 0.285(2) 0.4014(5) 0.111(1) 2.7 1.
Cs1 Cs1+ 4 b 0.247(2) 0.1258(4) 0.561(2) 3.9 1.
#End of TTdata_4074-ICSD