
#(C) 2020 by FIZ Karlsruhe - Leibniz Institute for Information Infrastructure.  All rights reserved.
data_409640-ICSD
_database_code_ICSD 409640
_audit_creation_date 2003-10-01
_chemical_name_common 'Dibarium pentaborate chloride'
_chemical_formula_structural 'Ba2 (B5 O9) Cl'
_chemical_formula_sum 'B5 Ba2 Cl1 O9'
_chemical_name_structure_type Ca2B5O9Br
_exptl_crystal_density_diffrn 3.75
_citation_title
'Crystal structure of dibarium pentaborate chloride, Ba2 B5 O9 Cl'
loop_
_citation_id
_citation_journal_full
_citation_year
_citation_journal_volume
_citation_page_first
_citation_page_last
_citation_journal_id_ASTM
primary 'Zeitschrift fuer Kristallographie - New Crystal Structures' 2002 217
463 464 ZKNSFT
loop_
_citation_author_citation_id
_citation_author_name
primary 'Held, P.'
primary 'Liebertz, J.'
primary 'Bohaty, L.'
_cell_length_a 11.6358(9)
_cell_length_b 11.583(1)
_cell_length_c 6.6823(7)
_cell_angle_alpha 90.
_cell_angle_beta 90.
_cell_angle_gamma 90.
_cell_volume 900.62
_cell_formula_units_Z 4
_space_group_name_H-M_alt 'P n n 2'
_space_group_IT_number 34
loop_
_space_group_symop_id
_space_group_symop_operation_xyz
1 'x+1/2, -y+1/2, z+1/2'
2 '-x+1/2, y+1/2, z+1/2'
3 '-x, -y, z'
4 'x, y, z'
loop_
_atom_type_symbol
_atom_type_oxidation_number
Ba2+ 2
Cl1- -1
O2- -2
B3+ 3
loop_
_atom_site_label
_atom_site_type_symbol
_atom_site_symmetry_multiplicity
_atom_site_Wyckoff_symbol
_atom_site_fract_x
_atom_site_fract_y
_atom_site_fract_z
_atom_site_U_iso_or_equiv
_atom_site_occupancy
Ba1 Ba2+ 4 c 0.26853(2) 0.98071(2) 0.99472(3) 0.00863(8) 1.
Ba2 Ba2+ 4 c 0.45669(2) 0.74525(2) 0.64915(5) 0.00890(7) 1.
Cl1 Cl1- 2 b 0.5 0 0.7676(3) 0.0182(3) 1.
Cl2 Cl1- 2 a 0.5 0.5 0.5056(4) 0.0214(3) 1.
O1 O2- 4 c 0.1928(3) 0.7608(2) 0.0558(4) 0.0059(5) 1.
O2 O2- 4 c 0.2486(3) 0.1201(3) 0.3082(4) 0.0097(5) 1.
O3 O2- 4 c 0.0620(3) 0.7083(3) 0.7995(4) 0.0108(5) 1.
O4 O2- 4 c 0.2335(2) 0.8179(3) 0.7125(4) 0.0060(5) 1.
O5 O2- 4 c 0.2064(3) 0.0850(2) 0.6498(4) 0.0089(5) 1.
O6 O2- 4 c 0.0757(2) 0.7954(3) 0.4781(5) 0.0103(5) 1.
O7 O2- 4 c 0.3941(3) 0.7687(3) 0.0958(4) 0.0099(5) 1.
O8 O2- 4 c 0.2695(3) 0.7299(2) 0.3922(4) 0.0071(5) 1.
O9 O2- 4 c 0.2258(3) 0.9303(3) 0.4063(4) 0.0102(6) 1.
B1 B3+ 4 c 0.2850(4) 0.7129(4) 0.1779(6) 0.0059(6) 1.
B2 B3+ 4 c 0.2262(4) 0.0420(4) 0.4626(5) 0.0052(8) 1.
B3 B3+ 4 c 0.1861(4) 0.7288(4) 0.8432(6) 0.0063(7) 1.
B4 B3+ 4 c 0.0108(4) 0.7484(3) 0.6289(7) 0.0069(7) 1.
B5 B3+ 4 c 0.2014(3) 0.8187(3) 0.4986(7) 0.0051(6) 1.
loop_
_atom_site_aniso_label
_atom_site_aniso_type_symbol
_atom_site_aniso_U_11
_atom_site_aniso_U_22
_atom_site_aniso_U_33
_atom_site_aniso_U_12
_atom_site_aniso_U_13
_atom_site_aniso_U_23
Ba1 Ba2+ 0.01154(12) 0.00814(12) 0.0062(1) 0.00000(7) 0.00069(10) -0.00107(8)
Ba2 Ba2+ 0.00737(11) 0.01222(11) 0.0071(1) 0.00046(7) -0.00069(8) -0.00127(8)
Cl1 Cl1- 0.0135(7) 0.0132(6) 0.0280(7) -0.0028(6) 0 0
Cl2 Cl1- 0.0121(6) 0.0132(6) 0.0389(8) -0.0004(5) 0 0
O1 O2- 0.0056(12) 0.0091(12) 0.003(1) 0.0024(10) -0.0012(9) 0.0000(8)
O2 O2- 0.0190(14) 0.0054(12) 0.0048(11) -0.0032(10) 0.0001(11) 0.0001(9)
O3 O2- 0.0057(11) 0.0185(14) 0.0080(12) -0.0028(11) -0.0033(10) 0.0039(10)
O4 O2- 0.0061(13) 0.0089(13) 0.003(1) -0.0017(9) 0.0017(8) 0.0006(9)
O5 O2- 0.0157(12) 0.0061(11) 0.005(1) -0.001(1) 0.0020(11) -0.0005(10)
O6 O2- 0.0066(12) 0.0197(14) 0.0048(12) -0.001(1) -0.0012(10) 0.0028(11)
O7 O2- 0.0045(12) 0.0145(13) 0.0107(12) -0.0010(11) -0.0004(9) 0.0016(9)
O8 O2- 0.0123(14) 0.0062(12) 0.0027(11) 0.0013(10) 0.0004(9) 0.0005(9)
O9 O2- 0.0207(17) 0.0037(12) 0.0062(12) -0.0014(10) 0.0011(9) -0.0004(9)
B1 B3+ 0.0060(15) 0.0079(16) 0.0039(15) 0.0011(14) -0.0013(12) -0.0004(12)
B2 B3+ 0.0067(17) 0.0068(17) 0.002(2) 0.0005(12) -0.0001(11) 0.0009(13)
B3 B3+ 0.0076(18) 0.0070(16) 0.0044(15) -0.0003(14) 0.0002(14) 0.0010(11)
B4 B3+ 0.0058(16) 0.0099(15) 0.0049(17) 0.0023(14) -0.0018(16) -0.0009(12)
B5 B3+ 0.0043(15) 0.0053(15) 0.0057(12) -0.0012(12) 0.0044(17) -0.0008(14)
#End of TTdata_409640-ICSD