
#(C) 2020 by FIZ Karlsruhe - Leibniz Institute for Information Infrastructure.  All rights reserved.
data_409663-ICSD
_database_code_ICSD 409663
_audit_creation_date 2003-10-01
_chemical_name_common 'Barium aluminium borate difluoride'
_chemical_formula_structural 'Ba Al (B O3) F2'
_chemical_formula_sum 'Al1 B1 Ba1 F2 O3'
_exptl_crystal_density_diffrn 4.46
_diffrn_ambient_temperature 296.
_citation_title

;
Reinvestigation of the crystal structure of barium aluminum borate difluoride,
Ba Al B O3 F2, a new nonlinear optical material
;
loop_
_citation_id
_citation_journal_full
_citation_year
_citation_journal_volume
_citation_page_first
_citation_page_last
_citation_journal_id_ASTM
primary 'Zeitschrift fuer Kristallographie - New Crystal Structures' 2003 218 1
2 ZKNSFT
loop_
_citation_author_citation_id
_citation_author_name
primary 'Hu, Z.-G.'
primary 'Maramatsu, K.'
primary 'Kanehisa, N.'
primary 'Yoshimura, M.'
primary 'Mori, Y.'
primary 'Sasaki, T.'
primary 'Kai, Y.'
_cell_length_a 4.8879(6)
_cell_length_b 4.8879
_cell_length_c 9.403(1)
_cell_angle_alpha 90.
_cell_angle_beta 90.
_cell_angle_gamma 120.
_cell_volume 194.55
_cell_formula_units_Z 2
_space_group_name_H-M_alt 'P -6'
_space_group_IT_number 174
loop_
_space_group_symop_id
_space_group_symop_operation_xyz
1 '-x+y, -x, -z'
2 '-y, x-y, -z'
3 'x, y, -z'
4 '-x+y, -x, z'
5 '-y, x-y, z'
6 'x, y, z'
loop_
_atom_type_symbol
_atom_type_oxidation_number
Ba2+ 2
Al3+ 3
F1- -1
O2- -2
B3+ 3
loop_
_atom_site_label
_atom_site_type_symbol
_atom_site_symmetry_multiplicity
_atom_site_Wyckoff_symbol
_atom_site_fract_x
_atom_site_fract_y
_atom_site_fract_z
_atom_site_B_iso_or_equiv
_atom_site_occupancy
Ba1 Ba2+ 2 g 0 0 0.24974(6) 0.575(1) 1.
Al1 Al3+ 1 e -.3333 -.6667 0 0.41(4) 1.
Al2 Al3+ 1 d -.6667 -.3333 0.5 0.41(4) 1.
F1 F1- 2 h -.6667 -.3333 0.3138(6) 0.87(3) 1.
F2 F1- 2 i -.3333 -.6667 0.2038(5) 0.62(3) 1.
O1 O2- 3 j -.6750(7) -.0575(8) 0 0.70(4) 1.
O2 O2- 3 k -.0567(8) -.6761(7) 0.5 0.71(4) 1.
B1 B3+ 1 c -.6667 -.3333 0 0.7(1) 1.
B2 B3+ 1 f -.3333 -.6667 0.5 0.5(1) 1.
loop_
_atom_site_aniso_label
_atom_site_aniso_type_symbol
_atom_site_aniso_U_11
_atom_site_aniso_U_22
_atom_site_aniso_U_33
_atom_site_aniso_U_12
_atom_site_aniso_U_13
_atom_site_aniso_U_23
Ba1 Ba2+ 0.0076 0.00758(4) 0.00669(6) 0.0038 0 0
Al1 Al3+ 0.0056 0.006(1) 0.004(2) 0.0028 0 0
Al2 Al3+ 0.0036 0.0036(9) 0.009(2) 0.0018 0 0
F1 F1- 0.0154 0.015(1) 0.002(1) 0.0077 0 0
F2 F1- 0.0112 0.0112(9) 0.001(1) 0.0056 0 0
O1 O2- 0.0069(8) 0.0041(10) 0.016(1) 0.0028(7) 0 0
O2 O2- 0.006(1) 0.0082(9) 0.012(1) 0.0034(8) 0 0
B1 B3+ 0.0086 0.009(3) 0.008(6) 0.0043 0 0
B2 B3+ 0.0065 0.006(3) 0.008(6) 0.0032 0 0
#End of TTdata_409663-ICSD