
#(C) 2020 by FIZ Karlsruhe - Leibniz Institute for Information Infrastructure.  All rights reserved.
data_412516-ICSD
_database_code_ICSD 412516
_audit_creation_date 2003-04-01
_chemical_name_common 'Barium tetrathiodiborate'
_chemical_formula_structural 'Ba (B2 S4)'
_chemical_formula_sum 'B2 Ba1 S4'
_exptl_crystal_density_diffrn 3.25
_diffrn_ambient_temperature 153.
_citation_title

;
Ba B2 S4 : das erste nicht-oxidische Chalkogenoborat mit trigonal-planar und
tetraedrisch koordiniertem Bor
;
loop_
_citation_id
_citation_journal_full
_citation_year
_citation_journal_volume
_citation_page_first
_citation_page_last
_citation_journal_id_ASTM
primary 'Zeitschrift fuer Anorganische und Allgemeine Chemie (1950) (DE)' 2002
628 2637 2640 ZAACAB
loop_
_citation_author_citation_id
_citation_author_name
primary 'Hammerschmidt, A.'
primary 'Doech, M.'
primary 'Wulff, M.'
primary 'Krebs, B.'
_cell_length_a 6.6465(5)
_cell_length_b 15.6995(12)
_cell_length_c 6.0306(5)
_cell_angle_alpha 90.
_cell_angle_beta 110.961(1)
_cell_angle_gamma 90.
_cell_volume 587.63
_cell_formula_units_Z 4
_space_group_name_H-M_alt 'C 1 c 1'
_space_group_IT_number 9
loop_
_space_group_symop_id
_space_group_symop_operation_xyz
1 'x, -y, z+1/2'
2 'x, y, z'
3 'x+1/2, -y+1/2, z+1/2'
4 'x+1/2, y+1/2, z'
loop_
_atom_type_symbol
_atom_type_oxidation_number
Ba2+ 2
S2- -2
B3+ 3
loop_
_atom_site_label
_atom_site_type_symbol
_atom_site_symmetry_multiplicity
_atom_site_Wyckoff_symbol
_atom_site_fract_x
_atom_site_fract_y
_atom_site_fract_z
_atom_site_U_iso_or_equiv
_atom_site_occupancy
Ba1 Ba2+ 4 a 0.54874(5) 0.346300(15) 0.46562(6) 0.01796(10) 1.
S1 S2- 4 a 0.79280(18) 0.48576(8) 0.24226(19) 0.01275(19) 1.
S2 S2- 4 a 0.0629(2) 0.36328(8) 0.0488(2) 0.0165(2) 1.
S3 S2- 4 a 0.93104(18) 0.21590(8) 0.4256(2) 0.0170(2) 1.
S4 S2- 4 a 0.23332(19) 0.45198(8) 0.6695(2) 0.0158(2) 1.
B1 B3+ 4 a 0.7350(9) 0.1337(4) 0.3722(9) 0.0143(8) 1.
B2 B3+ 4 a 0.9716(8) 0.4799(3) 0.0581(8) 0.0126(8) 1.
loop_
_atom_site_aniso_label
_atom_site_aniso_type_symbol
_atom_site_aniso_U_11
_atom_site_aniso_U_22
_atom_site_aniso_U_33
_atom_site_aniso_U_12
_atom_site_aniso_U_13
_atom_site_aniso_U_23
Ba1 Ba2+ 0.02262(14) 0.01697(14) 0.01633(13) -0.00095(11) 0.00944(9)
-0.00158(11)
S1 S2- 0.0119(4) 0.0191(5) 0.0084(4) -0.0014(4) 0.0051(3) -0.0009(4)
S2 S2- 0.0224(5) 0.0125(4) 0.0197(5) 0.0020(4) 0.0137(4) 0.0023(4)
S3 S2- 0.0199(5) 0.0162(5) 0.0166(5) -0.0057(4) 0.0088(4) -0.0016(4)
S4 S2- 0.0162(4) 0.0197(5) 0.0143(5) 0.0065(4) 0.0087(4) 0.0064(4)
B1 B3+ 0.019(2) 0.0136(19) 0.012(2) -0.0059(18) 0.0069(17) -0.0017(17)
B2 B3+ 0.0162(19) 0.014(2) 0.0093(18) -0.0004(16) 0.0065(15) -0.0010(15)
#End of TTdata_412516-ICSD