
#(C) 2020 by FIZ Karlsruhe - Leibniz Institute for Information Infrastructure.  All rights reserved.
data_412710-ICSD
_database_code_ICSD 412710
_audit_creation_date 2003-10-01
_chemical_name_common 'Calcium tetraborate - beta'
_chemical_formula_structural 'Ca (B4 O7)'
_chemical_formula_sum 'B4 Ca1 O7'
_chemical_name_structure_type SrB4O7
_exptl_crystal_density_diffrn 3.34
_diffrn_ambient_temperature 200.
_citation_title

;
beta-(Ca B4 O7): a new polymorph synthesized under
high-pressure/high-temperature conditions
;
loop_
_citation_id
_citation_journal_full
_citation_year
_citation_journal_volume
_citation_page_first
_citation_page_last
_citation_journal_id_ASTM
primary 'Zeitschrift fuer Naturforschung, B: A Journal of Chemical Sciences'
2003 58 257 265 ZNBSEN
loop_
_citation_author_citation_id
_citation_author_name
primary 'Huppertz, H.'
_cell_length_a 10.584(1)
_cell_length_b 4.3694(10)
_cell_length_c 4.1935(10)
_cell_angle_alpha 90.
_cell_angle_beta 90.
_cell_angle_gamma 90.
_cell_volume 193.93
_cell_formula_units_Z 2
_space_group_name_H-M_alt 'P m n 21'
_space_group_IT_number 31
loop_
_space_group_symop_id
_space_group_symop_operation_xyz
1 'x+1/2, -y, z+1/2'
2 '-x+1/2, -y, z+1/2'
3 '-x, y, z'
4 'x, y, z'
loop_
_atom_type_symbol
_atom_type_oxidation_number
Ca2+ 2
O2- -2
B3+ 3
loop_
_atom_site_label
_atom_site_type_symbol
_atom_site_symmetry_multiplicity
_atom_site_Wyckoff_symbol
_atom_site_fract_x
_atom_site_fract_y
_atom_site_fract_z
_atom_site_U_iso_or_equiv
_atom_site_occupancy
Ca1 Ca2+ 2 a 0 0.80025(14) -.10320(15) 0.00855(18) 1.
O1 O2- 4 b 0.22521(15) 0.1375(4) 0.2453(4) 0.0052(3) 1.
O2 O2- 4 b 0.13658(16) 0.6488(3) -.6677(3) 0.0056(3) 1.
O3 O2- 4 b 0.13361(14) 0.2773(3) -.2503(4) 0.0050(3) 1.
O4 O2- 2 a 0 0.2151(5) -.7018(5) 0.0049(5) 1.
B1 B3+ 4 b 0.1206(2) 0.3264(5) -.5893(9) 0.0047(4) 1.
B2 B3+ 4 b 0.2504(2) 0.8215(5) -.6144(9) 0.0047(4) 1.
loop_
_atom_site_aniso_label
_atom_site_aniso_type_symbol
_atom_site_aniso_U_11
_atom_site_aniso_U_22
_atom_site_aniso_U_33
_atom_site_aniso_U_12
_atom_site_aniso_U_13
_atom_site_aniso_U_23
Ca1 Ca2+ 0.0092(3) 0.0090(3) 0.0075(3) 0 0 0.0001(3)
O1 O2- 0.0059(7) 0.0059(7) 0.0039(7) -0.0002(6) 0.0005(6) 0.0003(6)
O2 O2- 0.0046(6) 0.0040(7) 0.0082(10) -0.0002(5) -0.0008(5) 0.0007(5)
O3 O2- 0.0044(7) 0.0067(7) 0.0040(8) 0.0011(5) 0.0004(6) 0.0007(6)
O4 O2- 0.0048(10) 0.0041(9) 0.0057(11) 0 0 -0.0017(8)
B1 B3+ 0.0055(9) 0.0041(9) 0.0046(10) 0.0005(7) 0.0023(11) -0.0004(10)
B2 B3+ 0.0056(9) 0.0043(9) 0.0041(9) -0.0017(7) -0.0025(12) 0.0012(11)
#End of TTdata_412710-ICSD