
#(C) 2020 by FIZ Karlsruhe - Leibniz Institute for Information Infrastructure.  All rights reserved.
data_41319-ICSD
_database_code_ICSD 41319
_audit_creation_date 1999-11-30
_audit_update_record 2013-08-01
_chemical_name_common 'Pentastrontium bromide tris(borate)'
_chemical_formula_structural 'Sr5 Br (B O3)3'
_chemical_formula_sum 'B3 Br1 O9 Sr5'
_chemical_name_structure_type Sr5Br(BO3)3
_exptl_crystal_density_diffrn 4.36
_diffrn_ambient_temperature 298.
_citation_title 'New strontium borate halides: Sr5 (B O3)3 X (X= F, Br)'
loop_
_citation_id
_citation_journal_full
_citation_year
_citation_journal_volume
_citation_page_first
_citation_page_last
_citation_journal_id_ASTM
primary 'Inorganic Chemistry' 1993 32 101 105 INOCAJ
loop_
_citation_author_citation_id
_citation_author_name
primary 'Alekel, T.'
primary 'Keszler, D.A.'
_cell_length_a 10.002(2)
_cell_length_b 14.197(2)
_cell_length_c 7.458(1)
_cell_angle_alpha 90.
_cell_angle_beta 90.
_cell_angle_gamma 90.
_cell_volume 1059.02
_cell_formula_units_Z 4
_space_group_name_H-M_alt 'C 2 2 21'
_space_group_IT_number 20
loop_
_space_group_symop_id
_space_group_symop_operation_xyz
1 '-x, y, -z+1/2'
2 '-x, -y, z+1/2'
3 'x, -y, -z'
4 'x, y, z'
5 '-x+1/2, y+1/2, -z+1/2'
6 '-x+1/2, -y+1/2, z+1/2'
7 'x+1/2, -y+1/2, -z'
8 'x+1/2, y+1/2, z'
loop_
_atom_type_symbol
_atom_type_oxidation_number
Sr2+ 2
Br1- -1
O2- -2
B3+ 3
loop_
_atom_site_label
_atom_site_type_symbol
_atom_site_symmetry_multiplicity
_atom_site_Wyckoff_symbol
_atom_site_fract_x
_atom_site_fract_y
_atom_site_fract_z
_atom_site_B_iso_or_equiv
_atom_site_occupancy
Sr1 Sr2+ 4 a 0.2408(3) 0 0 1.5 1.
Sr2 Sr2+ 8 c 0.8665(2) 0.1289(1) 0.0645(3) 1.3 1.
Sr3 Sr2+ 4 b 0.5 0.1355(2) 0.25 1.2 1.
Sr4 Sr2+ 4 b 0.5 0.8620(2) 0.25 1.4 1.
Br1 Br1- 4 b 0 0.9429(4) 0.25 2.4 1.
O1 O2- 4 a 0.492(2) 0 0 1.3 1.
O2 O2- 8 c 0.330(1) 0.192(1) 0.988(2) 1.4 1.
O3 O2- 8 c 0.644(1) 0.199(1) 0.020(2) 1.5 1.
O4 O2- 8 c 0.305(1) 0.997(1) 0.659(2) 1.9 1.
O5 O2- 8 c 0.166(1) 0.146(1) 0.112(2) 1.5 1.
B1 B3+ 8 c 0.199(2) 0.212(2) 0.028(3) 1. 1.
B2 B3+ 4 a 0.629(3) 0 0 8. 1.
#End of TTdata_41319-ICSD