
#(C) 2020 by FIZ Karlsruhe - Leibniz Institute for Information Infrastructure.  All rights reserved.
data_413438-ICSD
_database_code_ICSD 413438
_audit_creation_date 2005-10-01
_audit_update_record 2007-04-01
_chemical_name_common 'Boron arsenate(V)'
_chemical_formula_structural 'B (As O4)'
_chemical_formula_sum 'As1 B1 O4'
_chemical_name_structure_type BPO4
_exptl_crystal_density_diffrn 3.66
_citation_title
'Collapsing cristobalitelike structures in silica analogues at high pressure'
loop_
_citation_id
_citation_journal_full
_citation_year
_citation_journal_volume
_citation_page_first
_citation_page_last
_citation_journal_id_ASTM
primary 'Physical Review Letters' 2003 91 015503 015503 PRLTAO
loop_
_citation_author_citation_id
_citation_author_name
primary 'Haines, J.'
primary 'Chateau, C.'
primary 'Leger, J.M.'
primary 'Bogicevic, C.'
primary 'Hull, S.'
primary 'Klug, D.D.'
primary 'Tse, J.S.'
_cell_length_a 4.46577
_cell_length_b 4.46577
_cell_length_c 6.81389(11)
_cell_angle_alpha 90.
_cell_angle_beta 90.
_cell_angle_gamma 90.
_cell_volume 135.89
_cell_formula_units_Z 2
_space_group_name_H-M_alt 'I -4'
_space_group_IT_number 82
loop_
_space_group_symop_id
_space_group_symop_operation_xyz
1 '-y, x, -z'
2 'y, -x, -z'
3 '-x, -y, z'
4 'x, y, z'
5 '-y+1/2, x+1/2, -z+1/2'
6 'y+1/2, -x+1/2, -z+1/2'
7 '-x+1/2, -y+1/2, z+1/2'
8 'x+1/2, y+1/2, z+1/2'
loop_
_atom_type_symbol
_atom_type_oxidation_number
B3+ 3
As5+ 5
O2- -2
loop_
_atom_site_label
_atom_site_type_symbol
_atom_site_symmetry_multiplicity
_atom_site_Wyckoff_symbol
_atom_site_fract_x
_atom_site_fract_y
_atom_site_fract_z
_atom_site_U_iso_or_equiv
_atom_site_occupancy
B1 B3+ 2 c 0. 0.5 0.25 0.0068 1.
As1 As5+ 2 a 0. 0. 0. 0.00577 1.
O1 O2- 8 g 0.15784(9) 0.27351(11) 0.13238(9) 0.00937 1.
loop_
_atom_site_aniso_label
_atom_site_aniso_type_symbol
_atom_site_aniso_U_11
_atom_site_aniso_U_22
_atom_site_aniso_U_33
_atom_site_aniso_U_12
_atom_site_aniso_U_13
_atom_site_aniso_U_23
B1 B3+ 0.00644(26) 0. 0. 0.00644(26) 0.0075(4) 0.
As1 As5+ 0.00551(20) 0. 0. 0.00551(20) 0.00630(35) 0.
O1 O2- 0.00790(16) 0.00009(15) -0.00317(13) 0.00999(18) 0.01023(18) 0.00055(21)
#End of TTdata_413438-ICSD