
#(C) 2020 by FIZ Karlsruhe - Leibniz Institute for Information Infrastructure.  All rights reserved.
data_413436-ICSD
_database_code_ICSD 413436
_audit_creation_date 2004-10-01
_audit_update_record 2007-04-01
_chemical_name_common 'Boron arsenate(V)'
_chemical_formula_structural 'B (As O4)'
_chemical_formula_sum 'As1 B1 O4'
_chemical_name_structure_type Berlinite#AlPO4#AlAsO4
_exptl_crystal_density_diffrn 4.04
_diffrn_ambient_temperature 170.
_citation_title

;
Crystal structures of alpha-quartz homeotypes boron phosphate and boron
arsenate: structure - property relationships
;
loop_
_citation_id
_citation_journal_full
_citation_year
_citation_journal_volume
_citation_page_first
_citation_page_last
_citation_journal_id_ASTM
primary 'Zeitschrift fuer Kristallographie' 2004 219 32 37 ZEKRDZ
loop_
_citation_author_citation_id
_citation_author_name
primary 'Haines, J.'
primary 'Cambon, O.'
primary 'Astier, R.'
primary 'Fertey, P.'
primary 'Chateau, C.'
_cell_length_a 4.547(1)
_cell_length_b 4.547(2)
_cell_length_c 10.304(8)
_cell_angle_alpha 90.
_cell_angle_beta 90.
_cell_angle_gamma 120.
_cell_volume 184.5
_cell_formula_units_Z 3
_space_group_name_H-M_alt 'P 31 2 1'
_space_group_IT_number 152
loop_
_space_group_symop_id
_space_group_symop_operation_xyz
1 'x-y, -y, -z+2/3'
2 '-x, -x+y, -z+1/3'
3 'y, x, -z'
4 '-x+y, -x, z+2/3'
5 '-y, x-y, z+1/3'
6 'x, y, z'
loop_
_atom_type_symbol
_atom_type_oxidation_number
B3+ 3
As5+ 5
O2- -2
loop_
_atom_site_label
_atom_site_type_symbol
_atom_site_symmetry_multiplicity
_atom_site_Wyckoff_symbol
_atom_site_fract_x
_atom_site_fract_y
_atom_site_fract_z
_atom_site_U_iso_or_equiv
_atom_site_occupancy
B1 B3+ 3 a -.4609(9) 0 0.3333 0.0047(5) 1.
As1 As5+ 3 b -.45657(8) 0 0.8333 0.00284(9) 1.
O1 O2- 6 c -.4024(6) -.2781(5) 0.37238(18) 0.0050(3) 1.
O2 O2- 6 c -.3952(5) -.3114(5) 0.8884(2) 0.0056(3) 1.
loop_
_atom_site_aniso_label
_atom_site_aniso_type_symbol
_atom_site_aniso_U_11
_atom_site_aniso_U_22
_atom_site_aniso_U_33
_atom_site_aniso_U_12
_atom_site_aniso_U_13
_atom_site_aniso_U_23
B1 B3+ 0.0059(10) 0.0038(14) 0.0039(12) 0.0019(7) 0.0003(6) 0.0006(12)
As1 As5+ 0.00343(11) 0.00304(15) 0.00194(13) 0.00152(7) 0.00006(6) 0.00012(11)
O1 O2- 0.0074(8) 0.0055(7) 0.0038(7) 0.0045(7) 0.0009(6) 0.0021(6)
O2 O2- 0.0078(8) 0.0053(7) 0.0052(7) 0.0046(6) 0.0015(6) 0.0030(6)
#End of TTdata_413436-ICSD