
#(C) 2020 by FIZ Karlsruhe - Leibniz Institute for Information Infrastructure.  All rights reserved.
data_413435-ICSD
_database_code_ICSD 413435
_audit_creation_date 2004-10-01
_audit_update_record 2007-04-01
_chemical_name_common 'Boron phosphate(V)'
_chemical_formula_structural 'B (P O4)'
_chemical_formula_sum 'B1 O4 P1'
_chemical_name_structure_type Berlinite#AlPO4#AlAsO4
_exptl_crystal_density_diffrn 3.09
_citation_title

;
Crystal structures of alpha-quartz homeotypes boron phosphate and boron
arsenate: structure - property relationships
;
loop_
_citation_id
_citation_journal_full
_citation_year
_citation_journal_volume
_citation_page_first
_citation_page_last
_citation_journal_id_ASTM
primary 'Zeitschrift fuer Kristallographie' 2004 219 32 37 ZEKRDZ
loop_
_citation_author_citation_id
_citation_author_name
primary 'Haines, J.'
primary 'Cambon, O.'
primary 'Astier, R.'
primary 'Fertey, P.'
primary 'Chateau, C.'
_cell_length_a 4.4605(1)
_cell_length_b 4.4605(1)
_cell_length_c 9.9000(1)
_cell_angle_alpha 90.
_cell_angle_beta 90.
_cell_angle_gamma 120.
_cell_volume 170.58
_cell_formula_units_Z 3
_space_group_name_H-M_alt 'P 31 2 1'
_space_group_IT_number 152
loop_
_space_group_symop_id
_space_group_symop_operation_xyz
1 'x-y, -y, -z+2/3'
2 '-x, -x+y, -z+1/3'
3 'y, x, -z'
4 '-x+y, -x, z+2/3'
5 '-y, x-y, z+1/3'
6 'x, y, z'
loop_
_atom_type_symbol
_atom_type_oxidation_number
B3+ 3
P5+ 5
O2- -2
loop_
_atom_site_label
_atom_site_type_symbol
_atom_site_symmetry_multiplicity
_atom_site_Wyckoff_symbol
_atom_site_fract_x
_atom_site_fract_y
_atom_site_fract_z
_atom_site_U_iso_or_equiv
_atom_site_occupancy
B1 B3+ 3 a 0.4638(10) 0 0.3333 0.0050(9) 1.
P1 P5+ 3 b 0.4639(2) 0 0.8333 0.0040(3) 1.
O1 O2- 6 c 0.4069(5) 0.2715(5) 0.38490(15) 0.0070(5) 1.
O2 O2- 6 c 0.4052(5) 0.2820(5) 0.88939(15) 0.0059(5) 1.
loop_
_atom_site_aniso_label
_atom_site_aniso_type_symbol
_atom_site_aniso_U_11
_atom_site_aniso_U_22
_atom_site_aniso_U_33
_atom_site_aniso_U_12
_atom_site_aniso_U_13
_atom_site_aniso_U_23
B1 B3+ 0.007(2) 0.002(3) 0.0044(18) 0.0012(14) 0.0004(13) 0.001(3)
P1 P5+ 0.0041(5) 0.0040(7) 0.0038(5) 0.0020(3) -.0001(3) -.0002(6)
O1 O2- 0.0087(13) 0.0078(11) 0.0045(9) 0.004(1) -.0028(10) -.0013(8)
O2 O2- 0.0092(13) 0.0069(11) 0.0037(9) 0.0056(11) -.002(1) -.0025(7)
#End of TTdata_413435-ICSD