####################################################################### 
# 
# This file contains crystal structure data downloaded from the 
# Cambridge Structural Database (CSD) hosted by the Cambridge 
# Crystallographic Data Centre (CCDC) in cooperation with FIZ Karlsruhe.
# 
# Please note that these data are only for research purposes or private use.
# For detailed information please see under Terms & Conditions.
# Full information about CCDC and FIZ Karlsruhe data access policies and 
# citation guidelines are available at http://www.ccdc.cam.ac.uk/access/V1
# 
# Audit and citation data items may have been added by FIZ Karlsruhe. 
# Please retain this information to preserve the provenance of 
# this file and to allow appropriate attribution of the data. 
# 
#######################################################################

data_41491-ICSD
_database_code_depnum_ccdc_archive 'CCDC 1611259'
loop_
_citation_id
_citation_doi
_citation_year
1 10.1103/PhysRevB.48.4335 1993
_audit_update_record             
;
2018-02-26 deposited with the CCDC.	2022-10-29 downloaded from the CCDC.
;
_database_code_ICSD              41491
_chemical_name_systematic        'Cadmium Selenide'
_chemical_formula_sum            'Cd1 Se1'
_cell_length_a                   4.2985
_cell_length_b                   4.2985
_cell_length_c                   7.0152
_cell_angle_alpha                90
_cell_angle_beta                 90
_cell_angle_gamma                120
_cell_volume                     112.25
_cell_formula_units_Z            2
_symmetry_space_group_name_H-M   'P 63 m c'
_symmetry_Int_Tables_number      186
_symmetry_cell_setting           hexagonal
loop_
_symmetry_equiv_pos_site_id
_symmetry_equiv_pos_as_xyz
1 '-x, -x+y, z+1/2'
2 'x-y, -y, z+1/2'
3 'y, x, z+1/2'
4 'x-y, x, z+1/2'
5 'y, -x+y, z+1/2'
6 '-x, -y, z+1/2'
7 'x, x-y, z'
8 '-x+y, y, z'
9 '-y, -x, z'
10 '-x+y, -x, z'
11 '-y, x-y, z'
12 'x, y, z'
loop_
_atom_site_label
_atom_site_type_symbol
_atom_site_fract_x
_atom_site_fract_y
_atom_site_fract_z
Cd1 Cd0+ 0.6667 0.3333 0
Se1 Se0+ 0.6667 0.3333 0.375

#End of data_41491-ICSD


