
#(C) 2020 by FIZ Karlsruhe - Leibniz Institute for Information Infrastructure.  All rights reserved.
data_416362-ICSD
_database_code_ICSD 416362
_audit_creation_date 2007-08-01
_chemical_name_common 'Bismuth borate oxide (2/8/15)'
_chemical_formula_structural 'Bi2 B8 O15'
_chemical_formula_sum 'B8 Bi2 O15'
_chemical_name_structure_type BiB8O15
_exptl_crystal_density_diffrn 4.14
_citation_title 'Growth and structure of alpha-Bi2 B8 O15 crystals'
loop_
_citation_id
_citation_journal_full
_citation_year
_citation_journal_volume
_citation_page_first
_citation_page_last
_citation_journal_id_ASTM
primary 'Crystallography Reports' 2006 51 705 709 CYSTE3
loop_
_citation_author_citation_id
_citation_author_name
primary 'Zavartsev, F.Yu.'
primary 'Kuz'micheva, G.M. (Kuzmicheva, G.M.)'
primary 'Rybakov, V.B.'
primary 'Kutovoi, S.A.'
primary 'Zagumennyi, A.I.'
_cell_length_a 4.3191(9)
_cell_length_b 22.175(7)
_cell_length_c 6.4739(19)
_cell_angle_alpha 90.
_cell_angle_beta 105.44(2)
_cell_angle_gamma 90.
_cell_volume 597.67
_cell_formula_units_Z 2
_space_group_name_H-M_alt 'P 1 21 1'
_space_group_IT_number 4
loop_
_space_group_symop_id
_space_group_symop_operation_xyz
1 '-x, y+1/2, -z'
2 'x, y, z'
loop_
_atom_type_symbol
_atom_type_oxidation_number
Bi3+ 3
B3+ 3
O2- -2
loop_
_atom_site_label
_atom_site_type_symbol
_atom_site_symmetry_multiplicity
_atom_site_Wyckoff_symbol
_atom_site_fract_x
_atom_site_fract_y
_atom_site_fract_z
_atom_site_U_iso_or_equiv
_atom_site_occupancy
Bi1 Bi3+ 2 a 0.824957(3) 0.647467(1) 0.669150(3) 0.01211(0) 1
Bi2 Bi3+ 2 a 0.610741(4) 0.783856(1) 0.894245(3) 0.01230(0) 1
B1 B3+ 2 a 0.44077(18) 0.98961(4) 0.56391(12) 0.02649(17) 1
B2 B3+ 2 a 0.4639(2) 0.96249(4) 0.21846(12) 0.0278(2) 1
B3 B3+ 2 a 0.68683(18) 0.89892(4) 0.51058(12) 0.02632(18) 1
B4 B3+ 2 a 0.86276(13) 0.78762(3) 0.48903(10) 0.01901(14) 1
B5 B3+ 2 a 0.28558(13) 0.77792(3) 0.26505(9) 0.01877(14) 1
B6 B3+ 2 a 0.42930(15) 1.14360(3) 0.91950(10) 0.02090(14) 1
B7 B3+ 2 a -0.14505(13) 1.15134(3) 0.69671(10) 0.01864(14) 1
B8 B3+ 2 a 0.4220(2) 1.03117(4) 0.90885(15) 0.0333(2) 1
O1 O2- 2 a 0.36147(15) 1.00040(3) 0.35005(9) 0.03957(17) 1
O2 O2- 2 a 0.60212(14) 0.93892(3) 0.64475(9) 0.03366(15) 1
O3 O2- 2 a 0.62231(14) 0.91133(3) 0.29802(9) 0.03753(16) 1
O4 O2- 2 a 0.82518(10) 0.845918(19) 0.58677(6) 0.01769(10) 1
O5 O2- 2 a 1.17796(9) 0.78498(2) 0.44517(7) 0.02118(10) 1
O6 O2- 2 a 0.83753(11) 0.73974(2) 0.63919(7) 0.02057(10) 1
O7 O2- 2 a 0.08442(11) 0.79139(3) 0.06695(8) 0.02844(13) 1
O8 O2- 2 a 0.61269(9) 0.78044(2) 0.28809(6) 0.01940(9) 1
O9 O2- 2 a 0.17569(8) 1.15230(2) 0.71746(6) 0.01939(10) 1
O10 O2- 2 a -0.34915(11) 1.14185(3) 0.50109(7) 0.02799(12) 1
O11 O2- 2 a 0.40015(10) 1.18986(2) 1.07779(7) 0.02253(11) 1
O12 O2- 2 a 0.74794(9) 1.14871(3) 0.87577(7) 0.02463(11) 1
O13 O2- 2 a 0.39715(10) 1.08321(2) 1.00902(7) 0.02253(11) 1
O14 O2- 2 a 0.35619(13) 1.03058(3) 0.69393(9) 0.03265(15) 1
O15 O2- 2 a 0.43181(14) 0.97820(3) 0.01217(9) 0.03383(15) 1
loop_
_atom_site_aniso_label
_atom_site_aniso_type_symbol
_atom_site_aniso_U_11
_atom_site_aniso_U_22
_atom_site_aniso_U_33
_atom_site_aniso_U_12
_atom_site_aniso_U_13
_atom_site_aniso_U_23
Bi1 Bi3+ 0.01213(1) 0.01177(1) 0.01303(1) 0.00049(1) 0.00441(0) 0.00034(1)
Bi2 Bi3+ 0.01238(1) 0.01199(1) 0.01317(1) 0.00085(1) 0.00451(0) 0.00060(1)
B1 B3+ 0.0326(3) 0.0306(3) 0.0183(2) 0.0083(2) 0.01025(19) -0.0006(3)
B2 B3+ 0.0362(3) 0.0284(4) 0.0214(3) 0.0036(2) 0.0119(2) 0.0011(2)
B3 B3+ 0.0331(3) 0.0227(3) 0.0227(3) 0.0000(3) 0.0067(2) -0.0020(3)
B4 B3+ 0.02044(19) 0.0159(2) 0.0235(2) -0.00508(19) 0.01087(16) 0.0050(2)
B5 B3+ 0.01779(19) 0.0234(3) 0.0167(2) -0.00799(19) 0.00741(15) -0.0007(2)
B6 B3+ 0.0265(2) 0.0136(2) 0.0211(2) -0.0120(2) 0.00375(18) -0.0049(2)
B7 B3+ 0.01692(19) 0.0151(2) 0.0242(2) -0.0026(2) 0.00596(17) 0.0037(2)
B8 B3+ 0.0450(4) 0.0202(3) 0.0294(4) -0.0004(3) 0.0006(3) -0.0013(3)
O1 O2- 0.0511(3) 0.0391(3) 0.0268(2) 0.0073(2) 0.00729(19) -0.0090(2)
O2 O2- 0.0415(2) 0.0303(3) 0.0249(2) 0.00762(19) 0.00146(19) 0.0069(2)
O3 O2- 0.0516(3) 0.0304(3) 0.0298(2) 0.0072(2) 0.0093(2) -0.0008(2)
O4 O2- 0.02149(14) 0.01521(18) 0.01804(15) -0.00260(13) 0.00816(11) -0.00226(13)
O5 O2- 0.01423(13) 0.02401(19) 0.02621(16) 0.00549(15) 0.00696(12) 0.00536(18)
O6 O2- 0.02686(16) 0.01765(19) 0.01778(15) -0.00075(14) 0.00696(12) 0.00990(14)
O7 O2- 0.03080(18) 0.0283(2) 0.02651(19) -0.00869(17) 0.00815(15) -0.00094(19)
O8 O2- 0.02168(14) 0.02045(19) 0.01970(14) 0.00008(14) 0.01184(11) 0.00355(16)
O9 O2- 0.02013(13) 0.01640(18) 0.02519(15) 0.00228(14) 0.01222(11) 0.00300(16)
O10 O2- 0.03718(19) 0.0240(2) 0.02141(17) 0.00425(19) 0.00542(15) 0.00014(18)
O11 O2- 0.02540(16) 0.0234(2) 0.02156(15) 0.00001(15) 0.01098(12) -0.00446(16)
O12 O2- 0.01693(14) 0.0283(2) 0.02668(18) -0.00265(18) 0.00234(13) -0.0018(2)
O13 O2- 0.02398(16) 0.0223(2) 0.02158(18) -0.00108(15) 0.00653(14) -0.00029(16)
O14 O2- 0.0409(2) 0.0282(2) 0.0278(2) 0.00597(18) 0.00737(18) -0.00732(19)
O15 O2- 0.0490(3) 0.0237(2) 0.0288(2) 0.0037(2) 0.0103(2) 0.0013(2)
#End of TTdata_416362-ICSD