
#(C) 2020 by FIZ Karlsruhe - Leibniz Institute for Information Infrastructure.  All rights reserved.
data_416822-ICSD
_database_code_ICSD 416822
_audit_creation_date 2008-08-01
_audit_update_record 2010-08-01
_chemical_name_common 'Bismuth(III) triborate - delta'
_chemical_formula_structural 'Bi B3 O6'
_chemical_formula_sum 'B3 Bi1 O6'
_chemical_name_structure_type Bi(BO2)3
_exptl_crystal_density_diffrn 6.38
_diffrn_ambient_temperature 293.
_citation_title 'A new non-centrosymmetric modification of Bi B3 O6'
loop_
_citation_id
_citation_journal_full
_citation_year
_citation_journal_volume
_citation_page_first
_citation_page_last
_citation_journal_id_ASTM
primary 'Angewandte Chemie, International Edition' 2006 45 8239 8241 ACIEF5
loop_
_citation_author_citation_id
_citation_author_name
primary 'Knyrim, J.S.'
primary 'Becker, P.'
primary 'Johrendt, D.'
primary 'Huppertz, H.'
_cell_length_a 18.448(4)
_cell_length_b 4.4495(9)
_cell_length_c 4.2806(9)
_cell_angle_alpha 90.
_cell_angle_beta 90.
_cell_angle_gamma 90.
_cell_volume 351.37
_cell_formula_units_Z 4
_space_group_name_H-M_alt 'P c a 21'
_space_group_IT_number 29
loop_
_space_group_symop_id
_space_group_symop_operation_xyz
1 'x+1/2, -y, z'
2 '-x+1/2, y, z+1/2'
3 '-x, -y, z+1/2'
4 'x, y, z'
loop_
_atom_type_symbol
_atom_type_oxidation_number
Bi3+ 3
O2- -2
B3+ 3
loop_
_atom_site_label
_atom_site_type_symbol
_atom_site_symmetry_multiplicity
_atom_site_Wyckoff_symbol
_atom_site_fract_x
_atom_site_fract_y
_atom_site_fract_z
_atom_site_U_iso_or_equiv
_atom_site_occupancy
Bi1 Bi3+ 4 a 0.837945(8) 0.15740(3) 0.70240(14) 0.00650(7) 1
O1 O2- 4 a 0.7883(2) 0.3102(7) 1.1578(8) 0.0061(7) 1
O2 O2- 4 a 0.9394(2) 0.3611(8) 1.0695(10) 0.0068(6) 1
O3 O2- 4 a 0.8543(2) -0.2403(9) 1.0338(8) 0.0051(5) 1
O4 O2- 4 a 0.72421(19) 0.7487(8) 0.9867(9) 0.0057(6) 1
O5 O2- 4 a 1.0679(2) 0.2639(9) 0.9753(9) 0.0070(6) 1
O6 O2- 4 a 0.9821(2) -0.1295(7) 0.9726(9) 0.0048(6) 1
B1 B3+ 4 a 0.7871(3) 0.6369(10) 1.1678(15) 0.0036(10) 1
B2 B3+ 4 a 0.9277(3) 0.6730(10) 1.1456(11) 0.0044(9) 1
B3 B3+ 4 a 1.0023(3) 0.1759(11) 1.1144(15) 0.0055(9) 1
loop_
_atom_site_aniso_label
_atom_site_aniso_type_symbol
_atom_site_aniso_U_11
_atom_site_aniso_U_22
_atom_site_aniso_U_33
_atom_site_aniso_U_12
_atom_site_aniso_U_13
_atom_site_aniso_U_23
Bi1 Bi3+ 0.00793(9) 0.00577(9) 0.00581(9) -0.00012(4) 0.00076(13) 0.00032(15)
O1 O2- 0.0088(13) 0.0050(11) 0.004(2) 0.0002(9) 0.0024(11) -0.0014(10)
O2 O2- 0.0087(16) 0.0048(14) 0.0068(15) 0.0003(10) -0.0022(13) -0.0023(11)
O3 O2- 0.0040(12) 0.0065(15) 0.0048(13) 0.0017(12) -0.0009(11) -0.0009(11)
O4 O2- 0.0035(13) 0.0085(15) 0.0051(13) 0.0011(12) 0.0005(10) -0.0021(12)
O5 O2- 0.0078(15) 0.0085(15) 0.0046(13) 0.0003(12) 0.0010(12) 0.0013(12)
O6 O2- 0.0076(15) 0.0037(12) 0.0030(13) -0.0002(10) 0.0023(12) -0.0007(10)
B1 B3+ 0.0054(16) 0.0023(15) 0.003(3) -0.0004(11) -0.0006(17) 0.0022(15)
B2 B3+ 0.0046(18) 0.0064(18) 0.002(2) -0.0005(13) -0.0015(13) -0.0004(12)
B3 B3+ 0.005(2) 0.007(2) 0.0047(19) -0.0016(14) -0.0011(16) 0.0006(14)
#End of TTdata_416822-ICSD