
#(C) 2020 by FIZ Karlsruhe - Leibniz Institute for Information Infrastructure.  All rights reserved.
data_417919-ICSD
_database_code_ICSD 417919
_audit_creation_date 2008-08-01
_chemical_name_common 'Caesium barium triborate'
_chemical_formula_structural 'Cs Ba (B3 O6)'
_chemical_formula_sum 'B3 Ba1 Cs1 O6'
_exptl_crystal_density_diffrn 3.96
_diffrn_ambient_temperature 294.
_citation_title
'Synthesis and crystal structure of a new cesium barium borate, Cs Ba B3 O6'
loop_
_citation_id
_citation_journal_full
_citation_year
_citation_journal_volume
_citation_page_first
_citation_page_last
_citation_journal_id_ASTM
primary 'Journal of Solid State Chemistry' 2007 180 2194 2201 JSSCBI
loop_
_citation_author_citation_id
_citation_author_name
primary 'Chen Guo Jun'
primary 'Wu Yi cheng'
primary 'Fu Pei Zhen'
_cell_length_a 12.469(3)
_cell_length_b 12.469(3)
_cell_length_c 7.444(3)
_cell_angle_alpha 90.
_cell_angle_beta 90.
_cell_angle_gamma 120.
_cell_volume 1002.31
_cell_formula_units_Z 6
_space_group_name_H-M_alt 'P 3 2 1'
_space_group_IT_number 150
loop_
_space_group_symop_id
_space_group_symop_operation_xyz
1 'x-y, -y, -z'
2 '-x, -x+y, -z'
3 'y, x, -z'
4 '-x+y, -x, z'
5 '-y, x-y, z'
6 'x, y, z'
loop_
_atom_type_symbol
_atom_type_oxidation_number
Ba2+ 2
Cs1+ 1
Ba2+ 2
Cs1+ 1
B3+ 3
O2- -2
loop_
_atom_site_label
_atom_site_type_symbol
_atom_site_symmetry_multiplicity
_atom_site_Wyckoff_symbol
_atom_site_fract_x
_atom_site_fract_y
_atom_site_fract_z
_atom_site_U_iso_or_equiv
_atom_site_occupancy
Ba1 Ba2+ 3 f 0.29808(13) 0.29808(13) 0.5 0.0157(5) 1
Cs1 Cs1+ 3 e 0.30421(18) 0.30421(18) 0. 0.0264(6) 1
Ba2 Ba2+ 3 f 0. 0.36683(15) 0.5 0.0174(5) 1
Cs2 Cs1+ 3 e 0. 0.3636(2) 0. 0.0245(6) 1
B1 B3+ 6 g 0.205(2) 0.624(2) 0.283(3) 0.010(5) 1
B2 B3+ 6 g 0.044(2) 0.130(2) 0.283(3) 0.006(4) 1
B3 B3+ 6 g 0.537(2) 0.271(2) 0.285(3) 0.009(4) 1
O1 O2- 6 g 0.0866(13) 0.5835(15) 0.295(2) 0.016(3) 1
O2 O2- 6 g 0.2495(13) 0.5410(14) 0.281(2) 0.012(3) 1
O3 O2- 6 g 0.0860(15) 0.2463(15) 0.295(3) 0.018(4) 1
O4 O2- 6 g 0.1243(15) 0.0811(16) 0.279(2) 0.023(4) 1
O5 O2- 6 g 0.4157(19) 0.2079(17) 0.298(3) 0.027(4) 1
O6 O2- 6 g 0.6067(15) 0.4009(15) 0.280(2) 0.018(3) 1
loop_
_atom_site_aniso_label
_atom_site_aniso_type_symbol
_atom_site_aniso_U_11
_atom_site_aniso_U_22
_atom_site_aniso_U_33
_atom_site_aniso_U_12
_atom_site_aniso_U_13
_atom_site_aniso_U_23
Ba1 Ba2+ 0.0099(6) 0.0099(6) 0.0140(10) -0.0051(8) -0.0002(4) 0.0002(4)
Cs1 Cs1+ 0.0275(8) 0.0275(8) 0.0147(13) 0.0065(10) -0.0002(5) 0.0002(5)
Ba2 Ba2+ 0.0325(11) 0.0136(7) 0.0125(11) 0.0162(5) -0.0006(8) -0.0003(4)
Cs2 Cs1+ 0.0342(12) 0.0277(9) 0.0138(13) 0.0171(6) 0.0007(8) 0.0004(4)
B1 B3+ 0.010(5) 0.010(5) 0.010(5) 0.005(2) -0.0001(10) 0.0001(10)
B2 B3+ 0.006(4) 0.006(4) 0.006(4) 0.003(2) 0.0000(10) 0.0000(10)
B3 B3+ 0.009(4) 0.009(4) 0.009(4) 0.005(2) 0.0000(10) 0.0000(10)
O1 O2- 0.007(7) 0.014(8) 0.028(10) 0.006(6) -0.002(6) -0.004(7)
O2 O2- 0.013(3) 0.012(3) 0.013(3) 0.0064(18) 0.0002(10) -0.0001(10)
O3 O2- 0.021(8) 0.005(7) 0.026(11) 0.005(6) 0.004(6) 0.001(7)
O4 O2- 0.022(4) 0.023(4) 0.023(4) 0.011(2) -0.0001(10) 0.0000(10)
O5 O2- 0.027(4) 0.027(4) 0.027(4) 0.013(2) 0.0000(10) 0.0000(10)
O6 O2- 0.018(3) 0.018(3) 0.019(4) 0.0095(19) -0.0002(10) 0.0001(10)
#End of TTdata_417919-ICSD