
#(C) 2020 by FIZ Karlsruhe - Leibniz Institute for Information Infrastructure.  All rights reserved.
data_418092-ICSD
_database_code_ICSD 418092
_audit_creation_date 2018-02-01
_chemical_name_common 'Dirubidium  decaoxo-gallopentaborate tetrahydrate'
_chemical_formula_structural 'Rb2 (Ga (B5 O10)) (H2 O)4'
_chemical_formula_sum 'H8 B5 Ga1 O14 Rb2'
_chemical_name_structure_type Rb2GaB5O10(H2O)4
_exptl_crystal_density_diffrn 2.54
_diffrn_ambient_temperature 291.
_citation_title

;
Synthesis, characterization, and thermochemical properties of a microporous
crystal material for Rb2[Ga(B5O10)].4H2O
;
loop_
_citation_id
_citation_journal_full
_citation_year
_citation_journal_volume
_citation_page_first
_citation_page_last
_citation_journal_id_ASTM
primary 'Journal of Chemical & Engineering Data' 2012 57 1964 1969 JCEAAX
loop_
_citation_author_citation_id
_citation_author_name
primary 'Li, Sa-Ying'
primary 'Yang, Ping'
primary 'Liu, Zhi-Hong'
_cell_length_a 9.5126(16)
_cell_length_b 10.3814(17)
_cell_length_c 13.959(2)
_cell_angle_alpha 90.
_cell_angle_beta 90.
_cell_angle_gamma 90.
_cell_volume 1378.5
_cell_formula_units_Z 4
_space_group_name_H-M_alt 'C 2 2 21'
_space_group_IT_number 20
loop_
_space_group_symop_id
_space_group_symop_operation_xyz
1 '-x, y, -z+1/2'
2 '-x, -y, z+1/2'
3 'x, -y, -z'
4 'x, y, z'
5 '-x+1/2, y+1/2, -z+1/2'
6 '-x+1/2, -y+1/2, z+1/2'
7 'x+1/2, -y+1/2, -z'
8 'x+1/2, y+1/2, z'
loop_
_atom_type_symbol
_atom_type_oxidation_number
Ga3+ 3
Rb1+ 1
B3+ 3
O2- -2
H1+ 1
O2- -2
H1+ 1
O2- -2
H1+ 1
loop_
_atom_site_label
_atom_site_type_symbol
_atom_site_symmetry_multiplicity
_atom_site_Wyckoff_symbol
_atom_site_fract_x
_atom_site_fract_y
_atom_site_fract_z
_atom_site_U_iso_or_equiv
_atom_site_occupancy
Ga1 Ga3+ 4 a 0.36615(12) 1. 0.5 0.0061(3) 1
Rb1 Rb1+ 8 c 0.15190(14) 0.74617(12) 0.64557(9) 0.0421(4) 1
B1 B3+ 8 c 0.5168(11) 0.7789(10) 0.5817(7) 0.0138(16) 1
B2 B3+ 8 c 0.6700(10) 0.6059(9) 0.6315(7) 0.0117(16) 1
B3 B3+ 4 b 0.5 0.6995(13) 0.75 0.013(2) 1
O1 O2- 8 c 0.4824(7) 0.8612(7) 0.5093(5) 0.0232(14) 1
O2 O2- 8 c 0.4571(6) 0.7828(6) 0.6693(4) 0.0122(12) 1
O3 O2- 8 c 0.6211(7) 0.6883(6) 0.5605(5) 0.0173(14) 1
O4 O2- 8 c 0.7643(6) 0.5126(6) 0.6103(4) 0.0124(12) 1
O5 O2- 8 c 0.6191(6) 0.6162(6) 0.7236(4) 0.0133(13) 1
O6 O2- 8 c 0.1266(16) 0.8843(9) 0.8273(6) 0.071(4) 1
H1 H1+ 8 c 0.1233 0.9506 0.7939 0.106 1
H2 H1+ 8 c 0.1471 0.901 0.8836 0.106 1
O7 O2- 4 b 0. 0.5538(11) 0.75 0.039(3) 1
H3 H1+ 8 c -0.0322 0.5132 0.7039 0.058 1
O8 O2- 4 a 0.2786(19) 0.5 0.5 0.067(4) 1
H4 H1+ 8 c 0.2266 0.482 0.546 0.1 1
loop_
_atom_site_aniso_label
_atom_site_aniso_type_symbol
_atom_site_aniso_U_11
_atom_site_aniso_U_22
_atom_site_aniso_U_33
_atom_site_aniso_U_12
_atom_site_aniso_U_13
_atom_site_aniso_U_23
Ga1 Ga3+ 0.0054(5) 0.0082(5) 0.0048(6) 0. 0. 0.0025(5)
Rb1 Rb1+ 0.0387(7) 0.0464(7) 0.0414(7) -0.0091(6) -0.0070(6) 0.0067(5)
B1 B3+ 0.018(4) 0.015(3) 0.009(3) 0.009(3) 0.004(3) 0.006(3)
B2 B3+ 0.012(4) 0.013(3) 0.010(3) 0.006(3) 0.006(3) 0.001(3)
B3 B3+ 0.016(5) 0.015(5) 0.007(4) 0. 0.004(4) 0.
O1 O2- 0.032(3) 0.030(3) 0.007(3) 0.023(3) 0.007(3) 0.010(3)
O2 O2- 0.009(3) 0.017(3) 0.011(3) 0.006(2) 0.005(2) 0.004(2)
O3 O2- 0.021(3) 0.023(3) 0.008(3) 0.018(2) 0.007(2) 0.007(2)
O4 O2- 0.015(3) 0.012(3) 0.010(3) 0.010(3) 0.003(2) 0.001(2)
O5 O2- 0.018(3) 0.016(3) 0.006(3) 0.007(2) 0.007(2) 0.005(2)
O6 O2- 0.143(13) 0.042(5) 0.027(5) 0.000(7) -0.018(6) 0.009(4)
O7 O2- 0.050(8) 0.028(5) 0.037(6) 0. -0.014(5) 0.
O8 O2- 0.084(11) 0.060(7) 0.056(8) 0. 0. 0.014(6)
#End of TTdata_418092-ICSD