
#(C) 2020 by FIZ Karlsruhe - Leibniz Institute for Information Infrastructure.  All rights reserved.
data_420033-ICSD
_database_code_ICSD 420033
_audit_creation_date 2009-08-01
_chemical_name_common 'Potassium disilver tetrathiophosphate(V)'
_chemical_formula_structural 'K Ag2 (P S4)'
_chemical_formula_sum 'Ag2 K1 P1 S4'
_chemical_name_structure_type K3VO4
_exptl_crystal_density_diffrn 3.81
_diffrn_ambient_temperature 292.
_citation_title

;
Syntheses, crystal structures and spectroscopic properties of Ag2 Nb [P2 S6]
[S2] and K Ag2 [P S4]
;
loop_
_citation_id
_citation_journal_full
_citation_year
_citation_journal_volume
_citation_page_first
_citation_page_last
_citation_journal_id_ASTM
primary 'Journal of Solid State Chemistry' 2009 182 471 478 JSSCBI
loop_
_citation_author_citation_id
_citation_author_name
primary 'Wu Yuan Dong'
primary 'Bensch, W.'
_cell_length_a 6.6471(7)
_cell_length_b 6.6471(7)
_cell_length_c 8.1693(11)
_cell_angle_alpha 90.
_cell_angle_beta 90.
_cell_angle_gamma 90.
_cell_volume 360.95
_cell_formula_units_Z 2
_space_group_name_H-M_alt 'I -4 2 m'
_space_group_IT_number 121
loop_
_space_group_symop_id
_space_group_symop_operation_xyz
1 '-y, -x, z'
2 'y, x, z'
3 'y, -x, -z'
4 '-y, x, -z'
5 'x, -y, -z'
6 '-x, y, -z'
7 '-x, -y, z'
8 'x, y, z'
9 '-y+1/2, -x+1/2, z+1/2'
10 'y+1/2, x+1/2, z+1/2'
11 'y+1/2, -x+1/2, -z+1/2'
12 '-y+1/2, x+1/2, -z+1/2'
13 'x+1/2, -y+1/2, -z+1/2'
14 '-x+1/2, y+1/2, -z+1/2'
15 '-x+1/2, -y+1/2, z+1/2'
16 'x+1/2, y+1/2, z+1/2'
loop_
_atom_type_symbol
_atom_type_oxidation_number
Ag1+ 1
K1+ 1
P5+ 5
S2- -2
loop_
_atom_site_label
_atom_site_type_symbol
_atom_site_symmetry_multiplicity
_atom_site_Wyckoff_symbol
_atom_site_fract_x
_atom_site_fract_y
_atom_site_fract_z
_atom_site_U_iso_or_equiv
_atom_site_occupancy
Ag1 Ag1+ 4 d 0. 0.5 0.25 0.0353(5) 1
K1 K1+ 2 b 0. 0. 0.5 0.0179(7) 1
P1 P5+ 2 a 0. 0. 0. 0.0078(7) 1
S1 S2- 8 i 0.18131(18) 0.18131(18) 0.1398(2) 0.0151(6) 1
loop_
_atom_site_aniso_label
_atom_site_aniso_type_symbol
_atom_site_aniso_U_11
_atom_site_aniso_U_22
_atom_site_aniso_U_33
_atom_site_aniso_U_12
_atom_site_aniso_U_13
_atom_site_aniso_U_23
Ag1 Ag1+ 0.0211(5) 0.0211(5) 0.0638(9) 0. 0. 0.
K1 K1+ 0.0171(10) 0.0171(10) 0.0195(14) 0. 0. 0.
P1 P5+ 0.0068(9) 0.0068(9) 0.0099(13) 0. 0. 0.
S1 S2- 0.0122(6) 0.0122(6) 0.0211(8) -0.0014(7) -0.0041(4) -0.0041(4)
#End of TTdata_420033-ICSD