
#(C) 2020 by FIZ Karlsruhe - Leibniz Institute for Information Infrastructure.  All rights reserved.
data_420405-ICSD
_database_code_ICSD 420405
_audit_creation_date 2010-02-01
_chemical_name_common 'Disilver trimolybdotritellurate(IV)'
_chemical_formula_structural 'Ag2 (Mo3 Te3 O16)'
_chemical_formula_sum 'Ag2 Mo3 O16 Te3'
_chemical_name_structure_type Na2Mo3Te3O16
_exptl_crystal_density_diffrn 5.56
_diffrn_ambient_temperature 293.
_citation_title

;
Explorations of new second-order NLO materials in the Ag(I) - Mo(VI)/W(VI) -
Te(IV) - O systems
;
loop_
_citation_id
_citation_journal_full
_citation_year
_citation_journal_volume
_citation_page_first
_citation_page_last
_citation_journal_id_ASTM
primary 'Dalton Transactions' 2009 2009 5747 5754 DTARAF
loop_
_citation_author_citation_id
_citation_author_name
primary 'Zhou Yong'
primary 'Hu Chunli'
primary 'Hu Ting'
primary 'Kong Fang'
primary 'Mao Jiang Gao'
_cell_length_a 7.398(6)
_cell_length_b 11.296(8)
_cell_length_c 8.245(10)
_cell_angle_alpha 90.
_cell_angle_beta 97.730(11)
_cell_angle_gamma 90.
_cell_volume 682.76
_cell_formula_units_Z 2
_space_group_name_H-M_alt 'I 1 2 1'
_space_group_IT_number 5
loop_
_space_group_symop_id
_space_group_symop_operation_xyz
1 '-x, y, -z'
2 'x, y, z'
3 '-x+1/2, y+1/2, -z+1/2'
4 'x+1/2, y+1/2, z+1/2'
loop_
_atom_type_symbol
_atom_type_oxidation_number
Ag1+ 1
Mo6+ 6
Te4+ 4
O2- -2
loop_
_atom_site_label
_atom_site_type_symbol
_atom_site_symmetry_multiplicity
_atom_site_Wyckoff_symbol
_atom_site_fract_x
_atom_site_fract_y
_atom_site_fract_z
_atom_site_U_iso_or_equiv
_atom_site_occupancy
Ag1 Ag1+ 2 b 1. 0.39924(18) 1.5 0.0203(6) 1
Ag2 Ag1+ 2 a 1. 0.4743(2) 1. 0.0380(9) 1
Mo1 Mo6+ 4 c 1.24300(17) 0.16115(13) 0.77342(16) 0.0086(4) 1
Mo2 Mo6+ 2 a 1. -0.00065(18) 1. 0.0075(5) 1
Te1 Te4+ 2 b 1.5 0.40818(11) 1. 0.0083(4) 1
Te2 Te4+ 4 c 1.22436(12) 0.24353(10) 1.22228(12) 0.0097(3) 1
O1 O2- 4 c 1.6004(14) 0.2992(11) 1.1619(15) 0.020(3) 1
O2 O2- 4 c 1.2650(13) 0.3846(10) 1.1045(12) 0.010(2) 1
O3 O2- 4 c 0.9854(12) 0.2896(10) 1.2264(15) 0.016(2) 1
O4 O2- 4 c 1.1901(12) 0.1518(10) 1.0268(11) 0.0089(18) 1
O5 O2- 4 c 1.4169(15) 0.0602(13) 0.8093(19) 0.031(3) 1
O6 O2- 4 c 1.2174(14) 0.1724(12) 0.5670(14) 0.022(3) 1
O7 O2- 4 c 1.0401(13) 0.0495(10) 0.7837(13) 0.011(2) 1
O8 O2- 4 c 1.1792(15) -0.0962(12) 1.0532(14) 0.019(3) 1
loop_
_atom_site_aniso_label
_atom_site_aniso_type_symbol
_atom_site_aniso_U_11
_atom_site_aniso_U_22
_atom_site_aniso_U_33
_atom_site_aniso_U_12
_atom_site_aniso_U_13
_atom_site_aniso_U_23
Ag1 Ag1+ 0.0208(8) 0.0169(13) 0.0242(12) 0. 0.0061(8) 0.
Ag2 Ag1+ 0.0201(13) 0.0205(19) 0.069(2) 0. -0.0091(12) 0.
Mo1 Mo6+ 0.0096(5) 0.0043(7) 0.0119(6) -0.0014(5) 0.0017(4) -0.0017(7)
Mo2 Mo6+ 0.0073(11) 0.0020(10) 0.0129(13) 0. 0.0003(8) 0.
Te1 Te4+ 0.0090(6) 0.0029(7) 0.0131(9) 0. 0.0023(5) 0.
Te2 Te4+ 0.0119(4) 0.0062(5) 0.0111(5) -0.0011(5) 0.0022(3) -0.0018(5)
O1 O2- 0.019(5) 0.009(6) 0.032(7) -0.002(4) 0.002(5) 0.009(6)
O2 O2- 0.014(4) 0.007(5) 0.011(5) -0.001(4) 0.005(4) 0.001(4)
O3 O2- 0.011(4) 0.008(6) 0.032(6) 0.002(4) 0.010(4) 0.000(5)
O4 O2- 0.015(4) 0.003(5) 0.008(4) -0.004(4) 0.000(3) -0.001(5)
O5 O2- 0.020(5) 0.017(7) 0.054(9) 0.005(5) 0.001(6) -0.004(7)
O6 O2- 0.027(5) 0.018(7) 0.020(6) -0.011(5) 0.004(4) -0.002(5)
O7 O2- 0.018(4) 0.012(6) 0.006(5) -0.001(4) 0.006(4) 0.006(4)
O8 O2- 0.024(5) 0.016(6) 0.020(6) 0.000(5) 0.010(5) -0.012(5)
#End of TTdata_420405-ICSD