
#(C) 2020 by FIZ Karlsruhe - Leibniz Institute for Information Infrastructure.  All rights reserved.
data_420517-ICSD
_database_code_ICSD 420517
_audit_creation_date 2010-02-01
_chemical_name_common 'Ammonium fluoroboroarsenate(V)'
_chemical_formula_structural '(N H4) (B As O4 F)'
_chemical_formula_sum 'H4 As1 B1 F1 N1 O4'
_exptl_crystal_density_diffrn 2.73
_diffrn_ambient_temperature 120.
_citation_title

;
N H4 [B As O4 F] - a new layer fluoro - boroarsenate with a silicate related
topology
;
loop_
_citation_id
_citation_journal_full
_citation_year
_citation_journal_volume
_citation_page_first
_citation_page_last
_citation_journal_id_ASTM
primary 'Zeitschrift fuer Anorganische und Allgemeine Chemie (1950) (DE)' 2009
635 1877 1881 ZAACAB
loop_
_citation_author_citation_id
_citation_author_name
primary 'Lieb, A.'
primary 'Weller, M.T.'
_cell_length_a 4.4307(5)
_cell_length_b 8.0991(9)
_cell_length_c 12.6743(13)
_cell_angle_alpha 90.
_cell_angle_beta 90.230(6)
_cell_angle_gamma 90.
_cell_volume 454.81
_cell_formula_units_Z 4
_space_group_name_H-M_alt 'C 1 c 1'
_space_group_IT_number 9
loop_
_space_group_symop_id
_space_group_symop_operation_xyz
1 'x, -y, z+1/2'
2 'x, y, z'
3 'x+1/2, -y+1/2, z+1/2'
4 'x+1/2, y+1/2, z'
loop_
_atom_type_symbol
_atom_type_oxidation_number
As5+ 5
B3+ 3
O2- -2
F1- -1
N3- -3
H1+ 1
loop_
_atom_site_label
_atom_site_type_symbol
_atom_site_symmetry_multiplicity
_atom_site_Wyckoff_symbol
_atom_site_fract_x
_atom_site_fract_y
_atom_site_fract_z
_atom_site_U_iso_or_equiv
_atom_site_occupancy
As1 As5+ 4 a 0.9210(2) 0.98309(7) 0.72797(14) 0.00674(19) 1
B1 B3+ 4 a 0.416(2) 0.1579(11) 0.8081(7) 0.0098(17) 1
O1 O2- 4 a 0.6436(12) 0.1286(6) 0.7283(4) 0.0075(11) 1
O2 O2- 4 a 0.7529(13) 0.8120(6) 0.7783(5) 0.0131(12) 1
O3 O2- 4 a 0.1901(12) 0.0265(6) 0.8193(4) 0.0093(11) 1
O4 O2- 4 a 0.0378(13) 0.9702(7) 0.6052(4) 0.0117(12) 1
F1 F1- 4 a 0.5458(11) 0.1764(6) 0.9101(4) 0.0138(10) 1
N1 N3- 4 a 0.5116(15) 0.1488(8) 0.5058(5) 0.0119(14) 1
H1 H1+ 4 a 0.54 0.2421 0.533 0.014 1
H2 H1+ 4 a 0.6693 0.0911 0.5115 0.014 1
H3 H1+ 4 a 0.3695 0.0994 0.5379 0.014 1
H4 H1+ 4 a 0.4627 0.1597 0.4418 0.014 1
loop_
_atom_site_aniso_label
_atom_site_aniso_type_symbol
_atom_site_aniso_U_11
_atom_site_aniso_U_22
_atom_site_aniso_U_33
_atom_site_aniso_U_12
_atom_site_aniso_U_13
_atom_site_aniso_U_23
As1 As5+ 0.0054(3) 0.0067(3) 0.0082(3) -0.0016(8) -0.0001(2) 0.0011(7)
O2 O2- 0.011(3) 0.009(3) 0.019(3) -0.003(2) -0.001(2) 0.002(2)
O3 O2- 0.007(3) 0.010(3) 0.012(3) 0.007(2) -0.002(2) 0.000(2)
O4 O2- 0.015(3) 0.014(3) 0.006(3) 0.001(2) 0.000(2) 0.003(2)
F1 F1- 0.016(3) 0.018(3) 0.007(2) -0.001(2) -0.005(2) -0.0046(18)
N1 N3- 0.011(4) 0.013(3) 0.011(3) 0.005(3) 0.003(3) 0.000(3)
#End of TTdata_420517-ICSD