
#(C) 2020 by FIZ Karlsruhe - Leibniz Institute for Information Infrastructure.  All rights reserved.
data_420522-ICSD
_database_code_ICSD 420522
_audit_creation_date 2010-02-01
_chemical_name_common 'Distrontium magnesium digermanate'
_chemical_formula_structural 'Sr2 Mg (Ge2 O7)'
_chemical_formula_sum 'Ge2 Mg1 O7 Sr2'
_chemical_name_structure_type Melilite#Ca2MgSi2O7
_exptl_crystal_density_diffrn 4.27
_diffrn_ambient_temperature 293.
_citation_title

;
Optical properties of the germanate melilites Sr2 Mg Ge2 O7, Sr2 Zn Ge2 O7 and
Ba2 Zn Ge2 O7
;
loop_
_citation_id
_citation_journal_full
_citation_year
_citation_journal_volume
_citation_page_first
_citation_page_last
_citation_journal_id_ASTM
primary 'Crystal Research and Technology' 2009 44 603 612 CRTEDF
loop_
_citation_author_citation_id
_citation_author_name
primary 'Becker, P.'
primary 'Held, P.'
primary 'Liebertz, J.'
primary 'Bohaty, L.'
_cell_length_a 8.1725(6)
_cell_length_b 8.1725(6)
_cell_length_c 5.3150(7)
_cell_angle_alpha 90.
_cell_angle_beta 90.
_cell_angle_gamma 90.
_cell_volume 354.99
_cell_formula_units_Z 2
_space_group_name_H-M_alt 'P -4 21 m'
_space_group_IT_number 113
loop_
_space_group_symop_id
_space_group_symop_operation_xyz
1 '-y+1/2, -x+1/2, z'
2 'y, -x, -z'
3 'y+1/2, x+1/2, z'
4 '-y, x, -z'
5 'x+1/2, -y+1/2, -z'
6 '-x, -y, z'
7 '-x+1/2, y+1/2, -z'
8 'x, y, z'
loop_
_atom_type_symbol
_atom_type_oxidation_number
Sr2+ 2
Ge4+ 4
Mg2+ 2
O2- -2
loop_
_atom_site_label
_atom_site_type_symbol
_atom_site_symmetry_multiplicity
_atom_site_Wyckoff_symbol
_atom_site_fract_x
_atom_site_fract_y
_atom_site_fract_z
_atom_site_U_iso_or_equiv
_atom_site_occupancy
Sr1 Sr2+ 4 e 0.33474(7) 0.16526(7) 0.50788(12) 0.0079(2) 1
Ge1 Ge4+ 4 e 0.14234(8) 0.35766(8) 0.94985(13) 0.0042(2) 1
Mg1 Mg2+ 2 a 0. 0. 0. 0.0059(8) 1
O1 O2- 2 c 0.5 0. 0.1840(15) 0.012(2) 1
O2 O2- 4 e 0.1388(6) 0.3612(6) 0.2725(8) 0.0078(12) 1
O3 O2- 8 f 0.0825(6) 0.1781(6) 0.7954(7) 0.0097(9) 1
loop_
_atom_site_aniso_label
_atom_site_aniso_type_symbol
_atom_site_aniso_U_11
_atom_site_aniso_U_22
_atom_site_aniso_U_33
_atom_site_aniso_U_12
_atom_site_aniso_U_13
_atom_site_aniso_U_23
Sr1 Sr2+ 0.0091(3) 0.0091(3) 0.0055(3) 0.0030(3) 0.0006(2) -0.0006(2)
Ge1 Ge4+ 0.0046(3) 0.0046(3) 0.0034(3) 0.0005(3) 0.0000(2) 0.0000(2)
Mg1 Mg2+ 0.0058(11) 0.0058(11) 0.0061(15) 0. 0. 0.
O1 O2- 0.011(4) 0.011(4) 0.009(4) -0.006(4) 0. 0.
O2 O2- 0.0108(19) 0.0108(19) 0.002(2) -0.004(3) -0.0009(15) 0.0009(15)
O3 O2- 0.016(3) 0.005(2) 0.0084(16) -0.006(2) 0.0010(17) -0.0005(18)
#End of TTdata_420522-ICSD