
#(C) 2020 by FIZ Karlsruhe - Leibniz Institute for Information Infrastructure.  All rights reserved.
data_420550-ICSD
_database_code_ICSD 420550
_audit_creation_date 2010-02-01
_chemical_name_common 'Dibarium zinc digermanate'
_chemical_formula_structural 'Ba2 Zn (Ge2 O7)'
_chemical_formula_sum 'Ba2 Ge2 O7 Zn1'
_chemical_name_structure_type Melilite#Ca2MgSi2O7
_exptl_crystal_density_diffrn 5.13
_diffrn_ambient_temperature 293.
_citation_title

;
Optical properties of the germanate melilites Sr2 Mg Ge2 O7, Sr2 Zn Ge2 O7 and
Ba2 Zn Ge2 O7
;
loop_
_citation_id
_citation_journal_full
_citation_year
_citation_journal_volume
_citation_page_first
_citation_page_last
_citation_journal_id_ASTM
primary 'Crystal Research and Technology' 2009 44 603 612 CRTEDF
loop_
_citation_author_citation_id
_citation_author_name
primary 'Becker, P.'
primary 'Held, P.'
primary 'Liebertz, J.'
primary 'Bohaty, L.'
_cell_length_a 8.3460(6)
_cell_length_b 8.3460(6)
_cell_length_c 5.5522(6)
_cell_angle_alpha 90.
_cell_angle_beta 90.
_cell_angle_gamma 90.
_cell_volume 386.74
_cell_formula_units_Z 2
_space_group_name_H-M_alt 'P -4 21 m'
_space_group_IT_number 113
loop_
_space_group_symop_id
_space_group_symop_operation_xyz
1 '-y+1/2, -x+1/2, z'
2 'y, -x, -z'
3 'y+1/2, x+1/2, z'
4 '-y, x, -z'
5 'x+1/2, -y+1/2, -z'
6 '-x, -y, z'
7 '-x+1/2, y+1/2, -z'
8 'x, y, z'
loop_
_atom_type_symbol
_atom_type_oxidation_number
Ba2+ 2
Ge4+ 4
Zn2+ 2
O2- -2
loop_
_atom_site_label
_atom_site_type_symbol
_atom_site_symmetry_multiplicity
_atom_site_Wyckoff_symbol
_atom_site_fract_x
_atom_site_fract_y
_atom_site_fract_z
_atom_site_U_iso_or_equiv
_atom_site_occupancy
Ba1 Ba2+ 4 e 0.334919(19) 0.165081(19) 0.50720(4) 0.00967(7) 1
Ge1 Ge4+ 4 e 0.14097(4) 0.35903(4) 0.96037(7) 0.00647(9) 1
Zn1 Zn2+ 2 a 0. 0. 0. 0.00831(13) 1
O1 O2- 2 c 0.5 0. 0.1571(7) 0.0110(9) 1
O2 O2- 4 e 0.1390(3) 0.3610(3) 0.2705(4) 0.0120(6) 1
O3 O2- 8 f 0.0792(3) 0.1832(3) 0.8124(4) 0.0114(5) 1
loop_
_atom_site_aniso_label
_atom_site_aniso_type_symbol
_atom_site_aniso_U_11
_atom_site_aniso_U_22
_atom_site_aniso_U_33
_atom_site_aniso_U_12
_atom_site_aniso_U_13
_atom_site_aniso_U_23
Ba1 Ba2+ 0.01012(8) 0.01012(8) 0.00877(10) 0.00241(9) 0.00059(7) -0.00059(7)
Ge1 Ge4+ 0.00678(12) 0.00678(12) 0.00585(17) 0.00034(16) 0.00000(11) 0.00000(11)
Zn1 Zn2+ 0.00742(18) 0.00742(18) 0.0101(3) 0. 0. 0.
O1 O2- 0.0131(15) 0.0131(15) 0.0068(18) -0.007(2) 0. 0.
O2 O2- 0.0140(10) 0.0140(10) 0.0080(11) 0.0038(17) -0.0010(8) 0.0010(8)
O3 O2- 0.0160(13) 0.0068(11) 0.0114(10) -0.0039(10) 0.0026(8) -0.0017(8)
#End of TTdata_420550-ICSD