
#(C) 2020 by FIZ Karlsruhe - Leibniz Institute for Information Infrastructure.  All rights reserved.
data_421141-ICSD
_database_code_ICSD 421141
_audit_creation_date 2011-08-01
_audit_update_record 2015-02-01
_chemical_name_common 'Barium aluminium borate difluoride'
_chemical_formula_structural 'Ba Al (B O3) F2'
_chemical_formula_sum 'Al1 B1 Ba1 F2 O3'
_chemical_name_structure_type AlBaBO3F2
_exptl_crystal_density_diffrn 4.49
_diffrn_ambient_temperature 293.
_citation_title
'Growth and structure redetermination of a nonlinear Ba Al B O3 F2 crystal'
loop_
_citation_id
_citation_journal_full
_citation_year
_citation_journal_volume
_citation_page_first
_citation_page_last
_citation_journal_id_ASTM
primary 'Solid State Sciences' 2011 13 875 878 SSSCFJ
loop_
_citation_author_citation_id
_citation_author_name
primary 'Hu Zhanggui'
primary 'Yue Yinchao'
primary 'Chen Xuean'
primary 'Yao Jiyong'
primary 'Wang Jianuo'
primary 'Lin Zheshuai'
_cell_length_a 4.8770(7)
_cell_length_b 4.8770(7)
_cell_length_c 9.3824(19)
_cell_angle_alpha 90.
_cell_angle_beta 90.
_cell_angle_gamma 120.
_cell_volume 193.26
_cell_formula_units_Z 2
_space_group_name_H-M_alt 'P -6 2 c'
_space_group_IT_number 190
loop_
_space_group_symop_id
_space_group_symop_operation_xyz
1 '-x, -x+y, -z'
2 'x-y, -y, -z'
3 'y, x, -z'
4 '-x, -x+y, z+1/2'
5 'x-y, -y, z+1/2'
6 'y, x, z+1/2'
7 '-x+y, -x, -z+1/2'
8 '-y, x-y, -z+1/2'
9 'x, y, -z+1/2'
10 '-x+y, -x, z'
11 '-y, x-y, z'
12 'x, y, z'
loop_
_atom_type_symbol
_atom_type_oxidation_number
Ba2+ 2
Al3+ 3
F1- -1
B3+ 3
O2- -2
loop_
_atom_site_label
_atom_site_type_symbol
_atom_site_symmetry_multiplicity
_atom_site_Wyckoff_symbol
_atom_site_fract_x
_atom_site_fract_y
_atom_site_fract_z
_atom_site_U_iso_or_equiv
_atom_site_occupancy
Ba1 Ba2+ 2 a 0. 0. 0. 0.00449(10) 1
Al1 Al3+ 2 d 0.6667 0.3333 0.25 0.0020(3) 1
F1 F1- 4 f 0.6667 0.3333 0.0547(2) 0.0081(4) 1
B1 B3+ 2 c 0.3333 0.6667 0.25 0.0047(10) 1
O1 O2- 6 h 0.3261(8) 0.3826(8) 0.25 0.0042(4) 1
loop_
_atom_site_aniso_label
_atom_site_aniso_type_symbol
_atom_site_aniso_U_11
_atom_site_aniso_U_22
_atom_site_aniso_U_33
_atom_site_aniso_U_12
_atom_site_aniso_U_13
_atom_site_aniso_U_23
Ba1 Ba2+ 0.00473(11) 0.00473(11) 0.00400(12) 0.00237(6) 0. 0.
Al1 Al3+ 0.0015(4) 0.0015(4) 0.0030(5) 0.0008(2) 0. 0.
F1 F1- 0.0095(7) 0.0095(7) 0.0053(8) 0.0047(3) 0. 0.
B1 B3+ 0.0028(15) 0.0028(15) 0.0086(19) 0.0014(7) 0. 0.
O1 O2- 0.0027(11) 0.0029(13) 0.0086(8) 0.0025(11) 0. 0.
#End of TTdata_421141-ICSD