
#(C) 2020 by FIZ Karlsruhe - Leibniz Institute for Information Infrastructure.  All rights reserved.
data_421260-ICSD
_database_code_ICSD 421260
_audit_creation_date 2011-08-01
_chemical_name_common 'Yttrium tris(hydroxotrioxodiborate)'
_chemical_formula_structural 'Y (B2 O3 (O H))3'
_chemical_formula_sum 'H3 B6 O12 Y1'
_chemical_name_structure_type HoB6O9(OH)3
_exptl_crystal_density_diffrn 2.76
_diffrn_ambient_temperature 295.
_citation_title

;
Synthesis, crystal structure, vibrational spectroscopy and thermal behavior of
Y (B2 O3 (O H))3
;
loop_
_citation_id
_citation_journal_full
_citation_year
_citation_journal_volume
_citation_page_first
_citation_page_last
_citation_journal_id_ASTM
primary 'Jiegou Huaxue ' 2010 29 1387 1393 JHUADF
loop_
_citation_author_citation_id
_citation_author_name
primary 'Sun, Hua Yu'
primary 'Zhou, Yan'
primary 'Huang, Ya Xi'
primary 'Sun, Wei'
primary 'Mi, Jin Xiao'
_cell_length_a 8.3942(4)
_cell_length_b 8.3942(4)
_cell_length_c 20.6484(12)
_cell_angle_alpha 90.
_cell_angle_beta 90.
_cell_angle_gamma 120.
_cell_volume 1260.01
_cell_formula_units_Z 6
_space_group_name_H-M_alt 'R 3 c H'
_space_group_IT_number 161
loop_
_space_group_symop_id
_space_group_symop_operation_xyz
1 '-x+y, y, z+1/2'
2 'x, x-y, z+1/2'
3 '-y, -x, z+1/2'
4 '-x+y, -x, z'
5 '-y, x-y, z'
6 'x, y, z'
7 '-x+y+2/3, y+1/3, z+5/6'
8 'x+2/3, x-y+1/3, z+5/6'
9 '-y+2/3, -x+1/3, z+5/6'
10 '-x+y+2/3, -x+1/3, z+1/3'
11 '-y+2/3, x-y+1/3, z+1/3'
12 'x+2/3, y+1/3, z+1/3'
13 '-x+y+1/3, y+2/3, z+1/6'
14 'x+1/3, x-y+2/3, z+1/6'
15 '-y+1/3, -x+2/3, z+1/6'
16 '-x+y+1/3, -x+2/3, z+2/3'
17 '-y+1/3, x-y+2/3, z+2/3'
18 'x+1/3, y+2/3, z+2/3'
loop_
_atom_type_symbol
_atom_type_oxidation_number
Y3+ 3
B3+ 3
O2- -2
H1+ 1
O2- -2
loop_
_atom_site_label
_atom_site_type_symbol
_atom_site_symmetry_multiplicity
_atom_site_Wyckoff_symbol
_atom_site_fract_x
_atom_site_fract_y
_atom_site_fract_z
_atom_site_U_iso_or_equiv
_atom_site_occupancy
Y1 Y3+ 6 a 0.3333 0.6667 0.63206(8) 0.0065(3) 1
B1 B3+ 18 b 0.3226(7) 0.4214(7) 0.7662(3) 0.0120(10) 1
B2 B3+ 18 b 0.0364(7) 0.3735(7) 0.7146(3) 0.0118(11) 1
O1 O2- 18 b 0.2560(4) 0.9105(4) 0.64981(14) 0.0108(6) 1
O2 O2- 18 b 0.0999(5) 0.6053(5) 0.55731(15) 0.0131(7) 1
H1 H1+ 18 b 0.1009 0.5557 0.5179 0.033 1
O3 O2- 18 b 0.1103(5) 0.5791(5) 0.71388(17) 0.0149(8) 1
O4 O2- 18 b 0.1340(5) 0.3344(5) 0.76554(16) 0.0133(7) 1
loop_
_atom_site_aniso_label
_atom_site_aniso_type_symbol
_atom_site_aniso_U_11
_atom_site_aniso_U_22
_atom_site_aniso_U_33
_atom_site_aniso_U_12
_atom_site_aniso_U_13
_atom_site_aniso_U_23
Y1 Y3+ 0.0064(3) 0.0064(3) 0.0068(3) 0.00321(14) 0. 0.
B1 B3+ 0.008(2) 0.009(2) 0.017(2) 0.003(2) -0.0014(19) 0.0016(18)
B2 B3+ 0.012(3) 0.016(2) 0.008(2) 0.007(2) -0.001(2) -0.002(2)
O1 O2- 0.0115(15) 0.0147(16) 0.0091(14) 0.0089(13) -0.0033(12) -0.0009(12)
O2 O2- 0.0201(17) 0.0146(17) 0.0090(14) 0.0121(15) -0.0037(12) -0.0014(12)
O3 O2- 0.0159(18) 0.0151(17) 0.0139(17) 0.0079(14) 0.0035(14) -0.0021(13)
O4 O2- 0.0089(15) 0.0164(16) 0.0143(15) 0.0061(14) 0.0009(12) 0.0018(13)
#End of TTdata_421260-ICSD