
#(C) 2020 by FIZ Karlsruhe - Leibniz Institute for Information Infrastructure.  All rights reserved.
data_421470-ICSD
_database_code_ICSD 421470
_audit_creation_date 2011-02-01
_chemical_name_common 'Tetraantimony trigermanate'
_chemical_formula_structural 'Sb4 (Ge O4)3'
_chemical_formula_sum 'Ge3 O12 Sb4'
_chemical_name_structure_type Eulytite#Bi4(SiO4)3
_exptl_crystal_density_diffrn 5.13
_diffrn_ambient_temperature 293.
_citation_title

;
Synthesis, crystal structure and properties of two antimony germanate
compounds
;
loop_
_citation_id
_citation_journal_full
_citation_year
_citation_journal_volume
_citation_page_first
_citation_page_last
_citation_journal_id_ASTM
primary 'Inorganic Chemistry Communications' 2010 13 789 792 ICCOFP
loop_
_citation_author_citation_id
_citation_author_name
primary 'Hu Bing'
primary 'Li Jian Rong'
primary 'Feng Mei Ling'
primary 'Huang Xiao Ying'
_cell_length_a 10.509(2)
_cell_length_b 10.509(2)
_cell_length_c 10.509(2)
_cell_angle_alpha 90.
_cell_angle_beta 90.
_cell_angle_gamma 90.
_cell_volume 1160.6
_cell_formula_units_Z 4
_space_group_name_H-M_alt 'I -4 3 d'
_space_group_IT_number 220
loop_
_space_group_symop_id
_space_group_symop_operation_xyz
1 '-y+1/4, -x+3/4, z+3/4'
2 'y+3/4, -x+1/4, -z+3/4'
3 '-y+3/4, x+3/4, -z+1/4'
4 'y+1/4, x+1/4, z+1/4'
5 'z+1/2, -x+1/2, -y'
6 '-z+1/2, -x, y+1/2'
7 '-z, x+1/2, -y+1/2'
8 'z, x, y'
9 'z+3/4, -y+1/4, -x+3/4'
10 '-z+3/4, y+3/4, -x+1/4'
11 '-z+1/4, -y+3/4, x+3/4'
12 'z+1/4, y+1/4, x+1/4'
13 '-y, z+1/2, -x+1/2'
14 'y+1/2, -z+1/2, -x'
15 '-y+1/2, -z, x+1/2'
16 'y, z, x'
17 '-x+3/4, z+3/4, -y+1/4'
18 '-x+1/4, -z+3/4, y+3/4'
19 'x+3/4, -z+1/4, -y+3/4'
20 'x+1/4, z+1/4, y+1/4'
21 '-x+1/2, -y, z+1/2'
22 '-x, y+1/2, -z+1/2'
23 'x+1/2, -y+1/2, -z'
24 'x, y, z'
25 '-y+3/4, -x+1/4, z+1/4'
26 'y+1/4, -x+3/4, -z+1/4'
27 '-y+1/4, x+1/4, -z+3/4'
28 'y+3/4, x+3/4, z+3/4'
29 'z, -x, -y+1/2'
30 '-z, -x+1/2, y'
31 '-z+1/2, x, -y'
32 'z+1/2, x+1/2, y+1/2'
33 'z+1/4, -y+3/4, -x+1/4'
34 '-z+1/4, y+1/4, -x+3/4'
35 '-z+3/4, -y+1/4, x+1/4'
36 'z+3/4, y+3/4, x+3/4'
37 '-y+1/2, z, -x'
38 'y, -z, -x+1/2'
39 '-y, -z+1/2, x'
40 'y+1/2, z+1/2, x+1/2'
41 '-x+1/4, z+1/4, -y+3/4'
42 '-x+3/4, -z+1/4, y+1/4'
43 'x+1/4, -z+3/4, -y+1/4'
44 'x+3/4, z+3/4, y+3/4'
45 '-x, -y+1/2, z'
46 '-x+1/2, y, -z'
47 'x, -y, -z+1/2'
48 'x+1/2, y+1/2, z+1/2'
loop_
_atom_type_symbol
_atom_type_oxidation_number
Sb3+ 3
Ge4+ 4
O2- -2
loop_
_atom_site_label
_atom_site_type_symbol
_atom_site_symmetry_multiplicity
_atom_site_Wyckoff_symbol
_atom_site_fract_x
_atom_site_fract_y
_atom_site_fract_z
_atom_site_U_iso_or_equiv
_atom_site_occupancy
Sb1 Sb3+ 16 c 0.597455(14) 0.402545(14) 0.902545(14) 0.00798(9) 1
Ge1 Ge4+ 12 a 0.75 0.125 1. 0.00655(12) 1
O1 O2- 48 e 0.67935(17) 0.03348(15) 1.11991(17) 0.0119(3) 1
loop_
_atom_site_aniso_label
_atom_site_aniso_type_symbol
_atom_site_aniso_U_11
_atom_site_aniso_U_22
_atom_site_aniso_U_33
_atom_site_aniso_U_12
_atom_site_aniso_U_13
_atom_site_aniso_U_23
Sb1 Sb3+ 0.00798(9) 0.00798(9) 0.00798(9) 0.00003(5) 0.00003(5) -0.00003(5)
Ge1 Ge4+ 0.00682(16) 0.0060(2) 0.00682(16) 0. 0. 0.
O1 O2- 0.0194(9) 0.0067(7) 0.0097(8) -0.0029(7) 0.0048(7) 0.0016(6)
#End of TTdata_421470-ICSD