
#(C) 2020 by FIZ Karlsruhe - Leibniz Institute for Information Infrastructure.  All rights reserved.
data_421885-ICSD
_database_code_ICSD 421885
_audit_creation_date 2011-08-01
_chemical_name_common 'Dicesium perfluorododecaborate hydrate'
_chemical_formula_structural 'Cs2 (B12 F12) (H2 O)'
_chemical_formula_sum 'H2 B12 Cs2 F12 O1'
_exptl_crystal_density_diffrn 2.83
_diffrn_ambient_temperature 110.
_citation_title
'K2 B12 F12: a rare A2 X structure for an ionic compound at ambient conditions'
loop_
_citation_id
_citation_journal_full
_citation_year
_citation_journal_volume
_citation_page_first
_citation_page_last
_citation_journal_id_ASTM
primary 'Journal of Fluorine Chemistry' 2010 131 1252 1256 JFLCAR
loop_
_citation_author_citation_id
_citation_author_name
primary 'Peryshkov, D.V.'
primary 'Strauss, S.H.'
_cell_length_a 9.7475(4)
_cell_length_b 10.2579(4)
_cell_length_c 15.0549(5)
_cell_angle_alpha 90.
_cell_angle_beta 90.
_cell_angle_gamma 90.
_cell_volume 1505.32
_cell_formula_units_Z 4
_space_group_name_H-M_alt 'P 21 21 21'
_space_group_IT_number 19
loop_
_space_group_symop_id
_space_group_symop_operation_xyz
1 '-x, y+1/2, -z+1/2'
2 'x+1/2, -y+1/2, -z'
3 '-x+1/2, -y, z+1/2'
4 'x, y, z'
loop_
_atom_type_symbol
_atom_type_oxidation_number
B0+ 0.833
Cs1+ 1
F1- -1
O2- -2
H1+ 1
loop_
_atom_site_label
_atom_site_type_symbol
_atom_site_symmetry_multiplicity
_atom_site_Wyckoff_symbol
_atom_site_fract_x
_atom_site_fract_y
_atom_site_fract_z
_atom_site_U_iso_or_equiv
_atom_site_occupancy
B1 B0+ 4 a 0.95449(17) 0.49437(17) -0.05170(11) 0.0094(3) 1
B2 B0+ 4 a 0.8065(2) 0.58397(18) -0.01722(12) 0.0094(3) 1
B3 B0+ 4 a 0.8011(2) 0.41001(17) -0.01958(12) 0.0090(3) 1
B4 B0+ 4 a 0.9658(2) 0.35040(16) 0.01467(12) 0.0096(3) 1
B5 B0+ 4 a 1.07457(18) 0.48909(18) 0.03780(11) 0.0106(3) 1
B6 B0+ 4 a 0.9735(2) 0.63345(18) 0.01847(12) 0.0102(3) 1
B7 B0+ 4 a 0.72584(17) 0.49723(19) 0.07172(11) 0.0088(3) 1
B8 B0+ 4 a 0.8253(2) 0.35316(17) 0.09168(12) 0.0096(3) 1
B9 B0+ 4 a 0.9935(2) 0.40121(18) 0.12705(12) 0.0108(3) 1
B10 B0+ 4 a 0.9990(2) 0.57632(18) 0.12933(12) 0.0106(3) 1
B11 B0+ 4 a 0.8332(2) 0.63565(18) 0.09536(12) 0.0102(3) 1
B12 B0+ 4 a 0.84560(17) 0.49138(19) 0.16185(11) 0.0101(3) 1
Cs1 Cs1+ 4 a 0.043357(10) 0.494422(10) 0.384196(6) 0.01207(2) 1
Cs2 Cs1+ 4 a 0.580210(12) 0.188656(11) 0.289657(7) 0.01698(3) 1
F1 F1- 4 a 0.99668(11) 0.49772(12) -0.13969(6) 0.01387(17) 1
F2 F1- 4 a 0.73689(11) 0.65801(10) -0.07950(7) 0.01180(19) 1
F3 F1- 4 a 0.72619(12) 0.34390(10) -0.08284(7) 0.01201(19) 1
F4 F1- 4 a 1.00958(11) 0.23334(10) -0.02012(7) 0.0139(2) 1
F5 F1- 4 a 1.21509(10) 0.48768(11) 0.02434(7) 0.01534(19) 1
F6 F1- 4 a 1.02372(12) 0.74941(10) -0.01500(7) 0.0138(2) 1
F7 F1- 4 a 0.58602(10) 0.50281(10) 0.08714(6) 0.01182(16) 1
F8 F1- 4 a 0.76845(11) 0.23819(10) 0.12363(8) 0.01283(19) 1
F9 F1- 4 a 1.06603(11) 0.33040(10) 0.18952(7) 0.0150(2) 1
F10 F1- 4 a 0.77968(12) 0.75003(10) 0.12868(8) 0.0139(2) 1
F11 F1- 4 a 1.08019(12) 0.63884(11) 0.19171(6) 0.01531(19) 1
F12 F1- 4 a 0.80197(11) 0.48790(12) 0.24933(6) 0.01483(19) 1
O1 O2- 4 a 0.37014(16) 0.37127(15) 0.19095(9) 0.0225(3) 1
H1 H1+ 4 a 0.2911 0.3282 0.1857 0.027 1
H2 H1+ 4 a 0.4078 0.3156 0.2087 0.027 1
loop_
_atom_site_aniso_label
_atom_site_aniso_type_symbol
_atom_site_aniso_U_11
_atom_site_aniso_U_22
_atom_site_aniso_U_33
_atom_site_aniso_U_12
_atom_site_aniso_U_13
_atom_site_aniso_U_23
B1 B0+ 0.0094(6) 0.0107(6) 0.0081(6) 0.0005(7) 0.0016(5) -0.0013(6)
B2 B0+ 0.0100(7) 0.0090(7) 0.0091(7) 0.0004(6) 0.0000(6) 0.0005(6)
B3 B0+ 0.0100(7) 0.0088(7) 0.0081(7) 0.0011(6) 0.0016(6) -0.0002(6)
B4 B0+ 0.0101(7) 0.0085(6) 0.0102(7) 0.0011(6) 0.0013(6) -0.0005(5)
B5 B0+ 0.0083(6) 0.0138(7) 0.0098(6) -0.0005(6) 0.0004(5) -0.0003(6)
B6 B0+ 0.0107(8) 0.0110(7) 0.0088(7) -0.0024(6) -0.0001(6) -0.0001(6)
B7 B0+ 0.0089(6) 0.0089(6) 0.0087(6) 0.0010(7) 0.0009(5) -0.0009(6)
B8 B0+ 0.0105(7) 0.0081(7) 0.0103(7) 0.0003(6) 0.0012(6) 0.0007(5)
B9 B0+ 0.0113(7) 0.0132(7) 0.0080(7) 0.0003(6) -0.0004(6) 0.0016(6)
B10 B0+ 0.0109(7) 0.0127(7) 0.0082(7) -0.0028(6) -0.0004(6) -0.0015(6)
B11 B0+ 0.0108(7) 0.0099(7) 0.0099(7) -0.0001(6) 0.0004(6) -0.0013(6)
B12 B0+ 0.0104(7) 0.0123(7) 0.0075(6) 0.0002(7) 0.0018(5) 0.0010(6)
Cs1 Cs1+ 0.01226(4) 0.01116(4) 0.01279(4) -0.00021(4) -0.00074(3) 0.00016(3)
Cs2 Cs1+ 0.01953(5) 0.01950(5) 0.01193(4) -0.00491(4) 0.00172(4) -0.00317(4)
F1 F1- 0.0161(4) 0.0178(4) 0.0077(4) 0.0003(4) 0.0034(3) 0.0001(4)
F2 F1- 0.0119(5) 0.0124(4) 0.0111(4) 0.0013(3) -0.0007(4) 0.0031(3)
F3 F1- 0.0122(5) 0.0121(4) 0.0117(4) -0.0020(4) -0.0016(4) -0.0025(3)
F4 F1- 0.0153(5) 0.0111(4) 0.0154(5) 0.0047(4) 0.0008(4) -0.0025(4)
F5 F1- 0.0077(4) 0.0212(5) 0.0171(5) -0.0001(4) 0.0022(3) 0.0021(4)
F6 F1- 0.0159(5) 0.0118(4) 0.0136(5) -0.0053(4) 0.0003(4) 0.0026(4)
F7 F1- 0.0080(4) 0.0117(4) 0.0158(4) 0.0011(4) 0.0027(3) -0.0008(4)
F8 F1- 0.0143(5) 0.0100(4) 0.0142(5) -0.0014(3) 0.0023(4) 0.0033(4)
F9 F1- 0.0143(5) 0.0185(5) 0.0123(4) 0.0041(4) -0.0023(4) 0.0047(3)
F10 F1- 0.0158(5) 0.0103(4) 0.0155(5) 0.0014(4) 0.0016(4) -0.0044(4)
F11 F1- 0.0149(5) 0.0195(5) 0.0116(4) -0.0037(4) -0.0022(4) -0.0038(4)
F12 F1- 0.0166(4) 0.0204(5) 0.0074(4) 0.0001(4) 0.0031(3) 0.0011(4)
O1 O2- 0.0194(6) 0.0277(7) 0.0205(7) -0.0055(6) -0.0012(5) -0.0024(6)
#End of TTdata_421885-ICSD