
#(C) 2020 by FIZ Karlsruhe - Leibniz Institute for Information Infrastructure.  All rights reserved.
data_4225-ICSD
_database_code_ICSD 4225
_audit_creation_date 1980-01-01
_audit_update_record 1987-11-13
_chemical_name_common 'Magnesium tris(borate) fluoride'
_chemical_formula_structural 'Mg5 (B O3)3 F'
_chemical_formula_sum 'B3 F1 Mg5 O9'
_exptl_crystal_density_diffrn 3.1
_citation_title

;
Structure of  Mg5 (B O3)3 F  and its relation to the structure of
leucophoenicite  Mn7 (Si O4)2 (Si4 (O H)2)
;
loop_
_citation_id
_citation_journal_full
_citation_year
_citation_journal_volume
_citation_page_first
_citation_page_last
_citation_journal_id_ASTM
primary Kristallografiya 1975 20 415 418 KRISAJ
loop_
_citation_author_citation_id
_citation_author_name
primary 'Brovkin, A.A.'
primary 'Nikishova, L.V.'
_cell_length_a 10.061(6)
_cell_length_b 4.536(3)
_cell_length_c 14.865(10)
_cell_angle_alpha 90.
_cell_angle_beta 90.
_cell_angle_gamma 90.
_cell_volume 678.39
_cell_formula_units_Z 4
_space_group_name_H-M_alt 'P n a 21'
_space_group_IT_number 33
loop_
_space_group_symop_id
_space_group_symop_operation_xyz
1 'x+1/2, -y+1/2, z'
2 '-x+1/2, y+1/2, z+1/2'
3 '-x, -y, z+1/2'
4 'x, y, z'
loop_
_atom_type_symbol
_atom_type_oxidation_number
Mg2+ 2
B3+ 3
O2- -2
F1- -1
loop_
_atom_site_label
_atom_site_type_symbol
_atom_site_symmetry_multiplicity
_atom_site_Wyckoff_symbol
_atom_site_fract_x
_atom_site_fract_y
_atom_site_fract_z
_atom_site_B_iso_or_equiv
_atom_site_occupancy
Mg1 Mg2+ 4 a 0.147 0.99 0.052 1.06 1.
Mg2 Mg2+ 4 a 0.419 0 0.148 1.06 1.
Mg3 Mg2+ 4 a 0.155 0.994 0.252 1.06 1.
Mg4 Mg2+ 4 a 0.132 0.999 0.457 1.06 1.
Mg5 Mg2+ 4 a 0.372 0.501 0.343 1.06 1.
B1 B3+ 4 a 0.277 0.445 0.148 1.06 1.
B2 B3+ 4 a 0.079 0.528 0.321 1.06 1.
B3 B3+ 4 a 0.426 0.033 0.475 1.06 1.
O1 O2- 4 a 0.299 0.294 0.069 1.06 1.
O2 O2- 4 a 0.493 0.815 0.035 1.06 1.
O3 O2- 4 a 0.301 0.312 0.231 1.06 1.
O4 O2- 4 a 0.247 0.75 0.146 1.06 1.
O5 O2- 4 a 0.495 0.81 0.262 1.06 1.
O6 O2- 4 a 0.054 0.248 0.342 1.06 1.
O7 O2- 4 a 0.182 0.69 0.357 1.06 1.
O8 O2- 4 a 0.314 0.198 0.445 1.06 1.
O9 O2- 4 a 0.443 0.751 0.452 1.06 1.
F1 F1- 4 a 0.057 0.19 0.153 1.06 1.
#End of TTdata_4225-ICSD