
#(C) 2020 by FIZ Karlsruhe - Leibniz Institute for Information Infrastructure.  All rights reserved.
data_422556-ICSD
_database_code_ICSD 422556
_audit_creation_date 2011-08-01
_chemical_name_common 'Pentabarium(II) tris(orthoborate) monochloride'
_chemical_formula_structural 'Ba5 (B O3)3 Cl'
_chemical_formula_sum 'B3 Ba5 Cl1 O9'
_chemical_name_structure_type Sr5Br(BO3)3
_exptl_crystal_density_diffrn 4.88
_diffrn_ambient_temperature 173.
_citation_title

;
Orthoborate halides with the formula (M(+II))5 (B O3)3 X: syntheses, crystal
structures and Raman spectra of Eu5 (B O3)3 Cl and Ba5 (B O3)3 X (X = Cl, Br)
;
loop_
_citation_id
_citation_journal_full
_citation_year
_citation_journal_volume
_citation_page_first
_citation_page_last
_citation_journal_id_ASTM
primary 'Zeitschrift fuer Naturforschung, B: A Journal of Chemical Sciences'
2011 66 359 365 ZNBSEN
loop_
_citation_author_citation_id
_citation_author_name
primary 'Reckeweg, O.'
primary 'Schulz, A.'
primary 'DiSalvo, F.J.'
_cell_length_a 10.4549(5)
_cell_length_b 14.8789(8)
_cell_length_c 7.8701(4)
_cell_angle_alpha 90.
_cell_angle_beta 90.
_cell_angle_gamma 90.
_cell_volume 1224.25
_cell_formula_units_Z 4
_space_group_name_H-M_alt 'C 2 2 21'
_space_group_IT_number 20
loop_
_space_group_symop_id
_space_group_symop_operation_xyz
1 '-x, y, -z+1/2'
2 '-x, -y, z+1/2'
3 'x, -y, -z'
4 'x, y, z'
5 '-x+1/2, y+1/2, -z+1/2'
6 '-x+1/2, -y+1/2, z+1/2'
7 'x+1/2, -y+1/2, -z'
8 'x+1/2, y+1/2, z'
loop_
_atom_type_symbol
_atom_type_oxidation_number
Ba2+ 2
Cl1- -1
O2- -2
B3+ 3
loop_
_atom_site_label
_atom_site_type_symbol
_atom_site_symmetry_multiplicity
_atom_site_Wyckoff_symbol
_atom_site_fract_x
_atom_site_fract_y
_atom_site_fract_z
_atom_site_U_iso_or_equiv
_atom_site_occupancy
Ba1 Ba2+ 4 a 0.76097(4) 0. 0. 0.00648(8) 1
Ba2 Ba2+ 8 c 0.13403(3) 0.87042(2) 0.94356(4) 0.00732(7) 1
Ba3 Ba2+ 4 b 0.5 0.86306(3) 0.75 0.00627(8) 1
Ba4 Ba2+ 4 b 0.5 0.14132(3) 0.75 0.00661(9) 1
Cl1 Cl1- 4 b 0. 0.04699(14) 0.75 0.0103(3) 1
O1 O2- 4 a 0.5062(5) 0. 0. 0.0086(10) 1
O2 O2- 8 c 0.6783(4) 0.8118(3) 0.0080(6) 0.0093(7) 1
O3 O2- 8 c 0.3573(4) 0.7921(3) 0.9850(6) 0.0107(8) 1
O4 O2- 8 c 0.6915(4) -0.0015(3) 0.3465(5) 0.0103(7) 1
O5 O2- 8 c 0.8796(4) 0.8507(3) 0.8801(5) 0.0105(8) 1
B1 B3+ 8 c 0.8059(6) 0.7905(4) 0.9680(7) 0.0064(11) 1
B2 B3+ 4 a 0.3722(8) 0. 0. 0.0066(13) 1
loop_
_atom_site_aniso_label
_atom_site_aniso_type_symbol
_atom_site_aniso_U_11
_atom_site_aniso_U_22
_atom_site_aniso_U_33
_atom_site_aniso_U_12
_atom_site_aniso_U_13
_atom_site_aniso_U_23
Ba1 Ba2+ 0.00504(17) 0.00696(19) 0.00743(17) 0. 0. -0.00039(18)
Ba2 Ba2+ 0.00633(12) 0.00749(14) 0.00813(12) 0.00025(13) 0.00018(11)
-0.00017(12)
Ba3 Ba2+ 0.00650(18) 0.0067(2) 0.00563(18) 0. 0.00061(15) 0.
Ba4 Ba2+ 0.00642(19) 0.0078(2) 0.00560(18) 0. -0.00052(15) 0.
Cl1 Cl1- 0.0088(8) 0.0129(9) 0.0093(7) 0. -0.0014(7) 0.
O1 O2- 0.006(2) 0.011(2) 0.009(2) 0. 0. -0.002(2)
O2 O2- 0.0073(17) 0.0082(17) 0.0123(18) 0.0008(14) -0.0009(17) -0.0023(18)
O3 O2- 0.0106(18) 0.0099(17) 0.0117(19) -0.0023(15) 0.0007(17) -0.0013(16)
O4 O2- 0.0095(17) 0.0116(18) 0.0098(16) 0.0016(19) 0.0040(14) -0.0002(18)
O5 O2- 0.0088(19) 0.013(2) 0.0099(17) -0.0013(16) 0.0053(15) 0.0007(15)
B1 B3+ 0.007(2) 0.007(3) 0.006(3) 0.001(2) 0.0005(18) 0.0009(19)
B2 B3+ 0.009(3) 0.005(3) 0.006(3) 0. 0. -0.001(3)
#End of TTdata_422556-ICSD