
#(C) 2020 by FIZ Karlsruhe - Leibniz Institute for Information Infrastructure.  All rights reserved.
data_423711-ICSD
_database_code_ICSD 423711
_audit_creation_date 2013-08-01
_chemical_name_common 'Barium tris(disulfato)germanate'
_chemical_formula_structural 'Ba (Ge (S2 O7)3)'
_chemical_formula_sum 'Ba1 Ge1 O21 S6'
_exptl_crystal_density_diffrn 2.94
_diffrn_ambient_temperature 293.
_citation_title

;
The unprecedented tetrakis-(disulfato)-silicate anion(Si (S2 O7)4)(4-), its
germanium congener (Ge (S2 O7)4)(4-), and the tris-(disulfato)-metallates (M
(S2 O7)3)(2-) (M = Si, Ge, Ti), stabilized by divalent counter cations B2+ (B
= Sr, Ba, Pb)
;
loop_
_citation_id
_citation_journal_full
_citation_year
_citation_journal_volume
_citation_page_first
_citation_page_last
_citation_journal_id_ASTM
primary 'Chemistry - an Asian Journal' 2012 7 2912 2920 CAAJBI
loop_
_citation_author_citation_id
_citation_author_name
primary 'Logemann, C.'
primary 'Riess, K.'
primary 'Wickleder, M.S.'
_cell_length_a 7.5769(3)
_cell_length_b 12.9751(6)
_cell_length_c 16.9785(7)
_cell_angle_alpha 90.
_cell_angle_beta 90.
_cell_angle_gamma 90.
_cell_volume 1669.17
_cell_formula_units_Z 4
_space_group_name_H-M_alt 'P 21 21 21'
_space_group_IT_number 19
loop_
_space_group_symop_id
_space_group_symop_operation_xyz
1 '-x, y+1/2, -z+1/2'
2 'x+1/2, -y+1/2, -z'
3 '-x+1/2, -y, z+1/2'
4 'x, y, z'
loop_
_atom_type_symbol
_atom_type_oxidation_number
Ba2+ 2
Ge4+ 4
S6+ 6
O2- -2
S6+ 6
O2- -2
loop_
_atom_site_label
_atom_site_type_symbol
_atom_site_symmetry_multiplicity
_atom_site_Wyckoff_symbol
_atom_site_fract_x
_atom_site_fract_y
_atom_site_fract_z
_atom_site_U_iso_or_equiv
_atom_site_occupancy
Ba1 Ba2+ 4 a 0.748672(16) 0.012514(7) 0.020729(6) 0.01701(2) 1
Ge1 Ge4+ 4 a 0.74598(3) 0.266828(13) 0.267724(9) 0.01387(3) 1
S1 S6+ 4 a 0.75376(7) 0.43587(3) 0.39354(2) 0.01433(5) 1
S2 S6+ 4 a 0.73073(7) 0.03347(4) 0.25194(3) 0.01847(8) 1
S3 S6+ 4 a 0.96402(6) 0.25863(3) 0.41894(2) 0.01421(6) 1
S4 S6+ 4 a 0.52362(6) 0.28074(4) 0.11704(3) 0.01662(7) 1
S5 S6+ 4 a 0.89158(6) 0.31377(4) 0.10282(2) 0.01775(7) 1
O1 O2- 4 a 0.7271(3) -0.03488(14) 0.18647(12) 0.0319(4) 1
O2 O2- 4 a 0.78579(19) 0.13851(11) 0.22268(8) 0.0191(2) 1
O3 O2- 4 a 0.94531(18) 0.24915(13) 0.33092(8) 0.0192(2) 1
O4 O2- 4 a 0.7144(2) 0.39721(12) 0.31186(8) 0.0222(3) 1
O5 O2- 4 a 0.54711(19) 0.29455(13) 0.20474(8) 0.0186(2) 1
O6 O2- 4 a 0.5231(2) 0.05237(13) 0.27168(9) 0.0221(3) 1
S6 S6+ 4 a 0.46402(6) 0.12268(4) 0.34625(3) 0.01806(7) 1
O7 O2- 4 a 0.3738(2) 0.33746(15) 0.09148(10) 0.0269(3) 1
O8 O2- 4 a 0.79675(18) 0.33143(11) 0.44236(8) 0.0160(2) 1
O9 O2- 4 a 0.5417(3) 0.17637(13) 0.09392(10) 0.0257(3) 1
O10 O2- 4 a 1.1212(2) 0.31324(13) 0.43780(10) 0.0224(3) 1
O11 O2- 4 a 0.5945(2) 0.21094(12) 0.34365(8) 0.0203(2) 1
O12 O2- 4 a 0.9273(2) 0.16543(12) 0.45883(10) 0.0245(3) 1
O13 O2- 4 a 0.8947(2) 0.32349(13) 0.19134(8) 0.0194(2) 1
O14 O2- 4 a 0.6889(2) 0.34458(13) 0.08098(9) 0.0202(2) 1
O15 O2- 4 a 0.5984(2) 0.47369(15) 0.42934(11) 0.0292(3) 1
O16 O2- 4 a 0.9074(2) 0.49832(14) 0.39460(12) 0.0285(3) 1
O17 O2- 4 a 0.9885(2) 0.39491(16) 0.06857(9) 0.0288(4) 1
O18 O2- 4 a 0.9208(2) 0.21118(15) 0.07701(10) 0.0270(3) 1
O19 O2- 4 a 0.4946(3) 0.06397(15) 0.41599(10) 0.0305(3) 1
O20 O2- 4 a 0.8161(3) 0.00610(17) 0.32241(12) 0.0325(4) 1
O21 O2- 4 a 0.2901(2) 0.1518(2) 0.32791(14) 0.0379(5) 1
loop_
_atom_site_aniso_label
_atom_site_aniso_type_symbol
_atom_site_aniso_U_11
_atom_site_aniso_U_22
_atom_site_aniso_U_33
_atom_site_aniso_U_12
_atom_site_aniso_U_13
_atom_site_aniso_U_23
Ba1 Ba2+ 0.01570(4) 0.01479(4) 0.02053(4) 0.00150(4) 0.00067(4) 0.00172(3)
Ge1 Ge4+ 0.01751(6) 0.01312(6) 0.01099(6) 0.00022(7) -0.00123(6) 0.00024(4)
S1 S6+ 0.01569(13) 0.01229(13) 0.01501(12) 0.00078(16) 0.00023(15) -0.00188(10)
S2 S6+ 0.0233(2) 0.01263(15) 0.01945(15) 0.00170(14) 0.00056(14) -0.00023(13)
S3 S6+ 0.01637(14) 0.01397(15) 0.01230(13) 0.00051(12) -0.00246(11) 0.00092(12)
S4 S6+ 0.01924(16) 0.01557(16) 0.01504(15) 0.00206(14) -0.00482(12) -0.00187(13)
S5 S6+ 0.02190(18) 0.01973(18) 0.01160(14) -0.00285(15) 0.00111(13) 0.00086(13)
O1 O2- 0.0395(10) 0.0224(7) 0.0338(8) -0.0024(7) 0.0091(7) -0.0127(6)
O2 O2- 0.0259(6) 0.0141(5) 0.0172(5) 0.0013(4) 0.0052(4) 0.0006(4)
O3 O2- 0.0187(5) 0.0270(7) 0.0120(4) 0.0069(5) -0.0026(4) -0.0021(5)
O4 O2- 0.0383(8) 0.0133(5) 0.0150(5) 0.0047(5) -0.0081(5) -0.0009(4)
O5 O2- 0.0194(5) 0.0230(6) 0.0133(5) 0.0015(5) -0.0031(4) -0.0022(4)
O6 O2- 0.0197(5) 0.0246(7) 0.0221(6) -0.0029(5) 0.0011(5) -0.0079(5)
S6 S6+ 0.01689(16) 0.02005(18) 0.01722(16) -0.00086(14) 0.00131(13) -0.00108(14)
O7 O2- 0.0250(7) 0.0330(9) 0.0227(6) 0.0101(6) -0.0080(5) -0.0004(6)
O8 O2- 0.0193(5) 0.0153(5) 0.0133(4) 0.0023(4) 0.0014(4) 0.0008(4)
O9 O2- 0.0331(8) 0.0171(6) 0.0269(7) -0.0005(6) -0.0043(6) -0.0067(5)
O10 O2- 0.0189(5) 0.0217(6) 0.0266(6) -0.0021(5) -0.0059(5) -0.0036(5)
O11 O2- 0.0259(6) 0.0193(6) 0.0157(5) -0.0047(5) 0.0046(4) -0.0029(5)
O12 O2- 0.0303(7) 0.0178(6) 0.0256(6) 0.0008(5) 0.0015(5) 0.0091(5)
O13 O2- 0.0234(6) 0.0234(6) 0.0114(5) -0.0057(5) -0.0004(4) 0.0022(4)
O14 O2- 0.0247(6) 0.0205(6) 0.0154(5) 0.0009(5) -0.0022(4) 0.0047(5)
O15 O2- 0.0278(7) 0.0293(8) 0.0307(8) 0.0139(6) 0.0089(6) 0.0026(7)
O16 O2- 0.0273(7) 0.0204(7) 0.0377(8) -0.0082(6) -0.0073(6) 0.0022(7)
O17 O2- 0.0326(8) 0.0369(9) 0.0167(6) -0.0145(7) 0.0013(5) 0.0069(6)
O18 O2- 0.0327(8) 0.0271(8) 0.0213(6) 0.0045(6) 0.0045(5) -0.0038(6)
O19 O2- 0.0436(10) 0.0261(8) 0.0217(6) -0.0015(7) 0.0034(6) 0.0058(6)
O20 O2- 0.0350(8) 0.0305(9) 0.0321(8) 0.0088(7) -0.0063(7) 0.0127(7)
O21 O2- 0.0179(6) 0.0490(13) 0.0469(11) 0.0067(7) -0.0038(6) -0.0122(10)
#End of TTdata_423711-ICSD