
#(C) 2020 by FIZ Karlsruhe - Leibniz Institute for Information Infrastructure.  All rights reserved.
data_423814-ICSD
_database_code_ICSD 423814
_audit_creation_date 2013-02-01
_chemical_name_common 'Potassium tetrastrontium triborate'
_chemical_formula_structural 'K Sr4 (B3 O9)'
_chemical_formula_sum 'B3 K1 O9 Sr4'
_chemical_name_structure_type NaCa4(BO3)3
_exptl_crystal_density_diffrn 4.14
_diffrn_ambient_temperature 296.
_citation_title
'Structure, growth and properties of a novel polar material, K Sr4 B3 O9'
loop_
_citation_id
_citation_journal_full
_citation_year
_citation_journal_volume
_citation_page_first
_citation_page_last
_citation_journal_id_ASTM
primary 'Journal of Solid State Chemistry' 2012 195 73 78 JSSCBI
loop_
_citation_author_citation_id
_citation_author_name
primary 'Zhao Wenwu'
primary 'Pan Shilie'
primary 'Wang Yongjiang'
primary 'Yang Zhihua'
primary 'Wang Xian'
primary 'Han Jian'
_cell_length_a 11.025(10)
_cell_length_b 11.977(10)
_cell_length_c 6.872(6)
_cell_angle_alpha 90.
_cell_angle_beta 90.
_cell_angle_gamma 90.
_cell_volume 907.42
_cell_formula_units_Z 4
_space_group_name_H-M_alt 'A m a 2'
_space_group_IT_number 40
loop_
_space_group_symop_id
_space_group_symop_operation_xyz
1 'x+1/2, -y, z'
2 '-x+1/2, y, z'
3 '-x, -y, z'
4 'x, y, z'
5 'x+1/2, -y+1/2, z+1/2'
6 '-x+1/2, y+1/2, z+1/2'
7 '-x, -y+1/2, z+1/2'
8 'x, y+1/2, z+1/2'
loop_
_atom_type_symbol
_atom_type_oxidation_number
Sr2+ 2
K1+ 1
B3+ 3
O2- -2
loop_
_atom_site_label
_atom_site_type_symbol
_atom_site_symmetry_multiplicity
_atom_site_Wyckoff_symbol
_atom_site_fract_x
_atom_site_fract_y
_atom_site_fract_z
_atom_site_U_iso_or_equiv
_atom_site_occupancy
Sr1 Sr2+ 8 c 0.97109(6) 0.78559(5) 0.02971(11) 0.00896(16) 1
Sr2 Sr2+ 4 b 0.75 0.85486(8) 0.39588(14) 0.0100(2) 1
Sr3 Sr2+ 4 a 1. 0.5 0.17616(12) 0.0126(2) 1
K1 K1+ 4 b 0.75 0.5839(2) -0.3669(4) 0.0300(7) 1
B1 B3+ 4 a 1. 1. 0.2488(15) 0.006(2) 1
B2 B3+ 4 b 0.75 0.6249(10) 0.2034(17) 0.012(2) 1
B3 B3+ 4 b 0.75 0.8335(11) -0.1881(19) 0.017(3) 1
O1 O2- 4 a 1. 1. 0.0475(12) 0.0155(16) 1
O2 O2- 4 b 0.75 1.0455(6) 0.5631(11) 0.0233(18) 1
O3 O2- 8 c 0.9751(4) 0.9022(4) 0.3473(7) 0.0122(11) 1
O4 O2- 8 c 0.8582(4) 0.6664(4) 0.2816(7) 0.0104(10) 1
O5 O2- 8 c 0.8585(5) 0.8141(4) -0.2829(7) 0.0133(11) 1
O6 O2- 4 b 0.75 0.8535(6) 0.0125(12) 0.0200(18) 1
loop_
_atom_site_aniso_label
_atom_site_aniso_type_symbol
_atom_site_aniso_U_11
_atom_site_aniso_U_22
_atom_site_aniso_U_33
_atom_site_aniso_U_12
_atom_site_aniso_U_13
_atom_site_aniso_U_23
Sr1 Sr2+ 0.0109(3) 0.0083(3) 0.0077(3) 0.0006(3) -0.0001(3) 0.0008(3)
Sr2 Sr2+ 0.0071(5) 0.0116(5) 0.0114(4) 0. 0. 0.0017(4)
Sr3 Sr2+ 0.0231(6) 0.0060(5) 0.0088(4) -0.0006(4) 0. 0.
K1 K1+ 0.0217(15) 0.0257(16) 0.0426(17) 0. 0. 0.0136(12)
#End of TTdata_423814-ICSD