
#(C) 2020 by FIZ Karlsruhe - Leibniz Institute for Information Infrastructure.  All rights reserved.
data_425548-ICSD
_database_code_ICSD 425548
_audit_creation_date 2014-02-01
_chemical_name_common 'Potassium tetrastrontium tris(borate)'
_chemical_formula_structural 'K Sr4 (B O3)3'
_chemical_formula_sum 'B3 K1 O9 Sr4'
_chemical_name_structure_type NaCa4(BO3)3
_exptl_crystal_density_diffrn 4.12
_diffrn_ambient_temperature 293.
_citation_title

;
Single-crystal structure determination and spectroscopic characterization of K
Sr4 (B O3)3
;
loop_
_citation_id
_citation_journal_full
_citation_year
_citation_journal_volume
_citation_page_first
_citation_page_last
_citation_journal_id_ASTM
primary 'Zeitschrift fuer Naturforschung, B: A Journal of Chemical Sciences'
2013 68 338 344 ZNBSEN
loop_
_citation_author_citation_id
_citation_author_name
primary 'Sohr, G.'
primary 'Clara, D.'
primary 'Huppertz, H.'
_cell_length_a 11.048(2)
_cell_length_b 11.991(2)
_cell_length_c 6.8878(14)
_cell_angle_alpha 90.
_cell_angle_beta 90.
_cell_angle_gamma 90.
_cell_volume 912.47
_cell_formula_units_Z 4
_space_group_name_H-M_alt 'A m a 2'
_space_group_IT_number 40
loop_
_space_group_symop_id
_space_group_symop_operation_xyz
1 'x+1/2, -y, z'
2 '-x+1/2, y, z'
3 '-x, -y, z'
4 'x, y, z'
5 'x+1/2, -y+1/2, z+1/2'
6 '-x+1/2, y+1/2, z+1/2'
7 '-x, -y+1/2, z+1/2'
8 'x, y+1/2, z+1/2'
loop_
_atom_type_symbol
_atom_type_oxidation_number
Sr2+ 2
K1+ 1
O2- -2
B3+ 3
loop_
_atom_site_label
_atom_site_type_symbol
_atom_site_symmetry_multiplicity
_atom_site_Wyckoff_symbol
_atom_site_fract_x
_atom_site_fract_y
_atom_site_fract_z
_atom_site_U_iso_or_equiv
_atom_site_occupancy
Sr1 Sr2+ 4 b 0.25 0.14556(4) 0.65333(6) 0.00823(9) 1
Sr2 Sr2+ 8 c 0.02929(3) 0.21499(2) 0.01973(5) 0.00754(8) 1
Sr3 Sr2+ 4 a 0. 0. 0.37213(7) 0.01008(9) 1
K1 K1+ 4 b 0.25 0.41637(11) 0.4175(2) 0.0202(2) 1
O1 O2- 4 b 0.25 0.1471(3) 0.0363(6) 0.0118(6) 1
O2 O2- 4 b 0.25 0.4545(4) 0.9887(7) 0.0180(8) 1
O3 O2- 8 c 0.6416(2) 0.1660(2) 0.2675(4) 0.0103(4) 1
O4 O2- 8 c 0.0254(2) 0.5974(2) 0.2026(4) 0.0105(4) 1
O5 O2- 8 c 0.1417(2) 0.1865(2) 0.3333(4) 0.0108(4) 1
O6 O2- 4 a 0. 0. 0.0017(6) 0.0136(7) 1
B1 B3+ 4 b 0.25 0.3753(5) 0.8470(8) 0.0099(8) 1
B2 B3+ 4 b 0.25 0.1704(5) 0.2322(8) 0.0088(8) 1
B3 B3+ 4 a 0. 0. 0.8032(8) 0.0079(7) 1
loop_
_atom_site_aniso_label
_atom_site_aniso_type_symbol
_atom_site_aniso_U_11
_atom_site_aniso_U_22
_atom_site_aniso_U_33
_atom_site_aniso_U_12
_atom_site_aniso_U_13
_atom_site_aniso_U_23
Sr1 Sr2+ 0.00630(14) 0.00913(17) 0.00927(17) 0. 0. 0.00000(13)
Sr2 Sr2+ 0.00695(11) 0.00780(12) 0.00788(12) 0.00078(8) 0.00004(9) 0.00053(9)
Sr3 Sr2+ 0.01502(19) 0.00667(16) 0.00854(17) 0.00018(13) 0. 0.
K1 K1+ 0.0142(4) 0.0191(5) 0.0274(6) 0. 0. 0.0071(4)
O1 O2- 0.0099(14) 0.0161(16) 0.0093(15) 0. 0. -0.0028(12)
O2 O2- 0.0145(15) 0.0177(17) 0.022(2) 0. 0. -0.0102(16)
O3 O2- 0.0072(9) 0.0095(10) 0.0142(11) -0.0001(7) -0.0008(8) 0.0006(8)
O4 O2- 0.0165(11) 0.0061(9) 0.0088(11) -0.0006(8) 0.0000(8) 0.0007(8)
O5 O2- 0.0063(9) 0.0158(10) 0.0104(10) 0.0017(8) 0.0011(7) 0.0005(8)
O6 O2- 0.0230(18) 0.0107(15) 0.0070(14) -0.0050(13) 0. 0.
B1 B3+ 0.0076(16) 0.0112(19) 0.011(2) 0. 0. 0.0029(16)
B2 B3+ 0.0050(16) 0.0104(19) 0.011(2) 0. 0. 0.0001(17)
B3 B3+ 0.0075(17) 0.0106(19) 0.0057(17) 0.0004(15) 0. 0.
#End of TTdata_425548-ICSD