
#(C) 2020 by FIZ Karlsruhe - Leibniz Institute for Information Infrastructure.  All rights reserved.
data_426544-ICSD
_database_code_ICSD 426544
_audit_creation_date 2014-02-01
_chemical_name_common 'Diboron phyllo-disulfate'
_chemical_formula_structural 'B2 S2 O9'
_chemical_formula_sum 'B2 O9 S2'
_exptl_crystal_density_diffrn 2.75
_diffrn_ambient_temperature 120.
_citation_title 'B2 S2 O9: A boron sulfate with phyllosilicate topology'
loop_
_citation_id
_citation_journal_full
_citation_year
_citation_journal_volume
_citation_page_first
_citation_page_last
_citation_journal_id_ASTM
primary 'Angewandte Chemie, International Edition' 2013 52 14229 14232 ACIEF5
loop_
_citation_author_citation_id
_citation_author_name
primary 'Logemann, Christian'
primary 'Wickleder, Mathias S.'
_cell_length_a 7.7600(8)
_cell_length_b 4.1664(4)
_cell_length_c 8.6134(9)
_cell_angle_alpha 90.
_cell_angle_beta 94.785(2)
_cell_angle_gamma 90.
_cell_volume 277.51
_cell_formula_units_Z 2
_space_group_name_H-M_alt 'C 1 2 1'
_space_group_IT_number 5
loop_
_space_group_symop_id
_space_group_symop_operation_xyz
1 '-x, y, -z'
2 'x, y, z'
3 '-x+1/2, y+1/2, -z'
4 'x+1/2, y+1/2, z'
loop_
_atom_type_symbol
_atom_type_oxidation_number
S6+ 6
O2- -2
B3+ 3
loop_
_atom_site_label
_atom_site_type_symbol
_atom_site_symmetry_multiplicity
_atom_site_Wyckoff_symbol
_atom_site_fract_x
_atom_site_fract_y
_atom_site_fract_z
_atom_site_U_iso_or_equiv
_atom_site_occupancy
S1 S6+ 4 c 0.16808(3) 0.67739(6) 0.73306(2) 0.00388(5) 1
O1 O2- 4 c 0.16956(10) 0.53247(19) 0.58607(9) 0.00780(14) 1
O2 O2- 4 c 0.33378(8) 0.83780(19) 0.79499(9) 0.00540(13) 1
O3 O2- 4 c 0.13155(9) 0.44609(17) 0.86227(8) 0.00531(13) 1
O4 O2- 4 c 0.03686(9) 0.94334(18) 0.73028(9) 0.00513(13) 1
O5 O2- 2 a 0. 0.0354(3) 1. 0.00513(17) 1
B1 B3+ 4 c 0.00183(12) 0.1786(4) 0.85569(11) 0.00533(14) 1
loop_
_atom_site_aniso_label
_atom_site_aniso_type_symbol
_atom_site_aniso_U_11
_atom_site_aniso_U_22
_atom_site_aniso_U_33
_atom_site_aniso_U_12
_atom_site_aniso_U_13
_atom_site_aniso_U_23
S1 S6+ 0.00326(8) 0.00288(8) 0.00551(8) 0.00019(10) 0.00052(5) 0.00019(15)
O1 O2- 0.0095(3) 0.0076(3) 0.0063(3) 0.0004(3) 0.0011(3) -0.0019(3)
O2 O2- 0.0022(3) 0.0044(3) 0.0095(3) -0.0002(2) -0.0004(2) 0.0005(3)
O3 O2- 0.0055(3) 0.0040(3) 0.0065(3) -0.0012(2) 0.0004(2) 0.0016(3)
O4 O2- 0.0042(3) 0.0045(3) 0.0066(3) 0.0016(2) 0.0002(2) -0.0004(3)
O5 O2- 0.0062(4) 0.0039(4) 0.0053(4) 0. 0.0005(3) 0.
B1 B3+ 0.0046(3) 0.0044(3) 0.0069(3) -0.0004(6) 0.0003(3) 0.0017(8)
#End of TTdata_426544-ICSD