
#(C) 2020 by FIZ Karlsruhe - Leibniz Institute for Information Infrastructure.  All rights reserved.
data_426601-ICSD
_database_code_ICSD 426601
_audit_creation_date 2016-02-01
_chemical_name_common 'Magnesium enneaoxodihydroxo-hexaborate tetrahydrate'
_chemical_formula_structural 'Mg (B6 O9 (O H)2) (H2 O)4'
_chemical_formula_sum 'H10 B6 Mg1 O15'
_exptl_crystal_density_diffrn 1.97
_diffrn_ambient_temperature 293.
_citation_title

;
A new acentric metal borate Mg (B6 O9 (O H)2) * 4(H2 O): Synthesis, structure
and optical property
;
loop_
_citation_id
_citation_journal_full
_citation_year
_citation_journal_volume
_citation_page_first
_citation_page_last
_citation_journal_id_ASTM
primary 'Inorganic Chemistry Communications' 2014 46 69 72 ICCOFP
loop_
_citation_author_citation_id
_citation_author_name
primary 'Wu, Han-Qing'
primary 'Wei, Qi'
primary 'He, Huan'
primary 'Yang, Bai-Feng'
primary 'Zhang, Qiang'
primary 'Yang, Guo-Yu'
_cell_length_a 14.3377(15)
_cell_length_b 9.8121(7)
_cell_length_c 8.1242(4)
_cell_angle_alpha 90.
_cell_angle_beta 90.
_cell_angle_gamma 90.
_cell_volume 1142.93
_cell_formula_units_Z 4
_space_group_name_H-M_alt 'P n a 21'
_space_group_IT_number 33
loop_
_space_group_symop_id
_space_group_symop_operation_xyz
1 'x+1/2, -y+1/2, z'
2 '-x+1/2, y+1/2, z+1/2'
3 '-x, -y, z+1/2'
4 'x, y, z'
loop_
_atom_type_symbol
_atom_type_oxidation_number
Mg2+ 2
B3+ 3
O2- -2
H1+ 1
O2- -2
H1+ 1
O2- -2
H1+ 1
O2- -2
H1+ 1
O2- -2
H1+ 1
loop_
_atom_site_label
_atom_site_type_symbol
_atom_site_symmetry_multiplicity
_atom_site_Wyckoff_symbol
_atom_site_fract_x
_atom_site_fract_y
_atom_site_fract_z
_atom_site_U_iso_or_equiv
_atom_site_occupancy
Mg1 Mg2+ 4 a 0.86741(9) 0.16696(14) 0.2846(2) 0.0138(4) 1
B1 B3+ 4 a 0.8013(3) 0.1675(5) 0.6387(6) 0.0118(10) 1
B2 B3+ 4 a 0.7415(3) 0.3982(5) 0.7061(5) 0.0121(9) 1
B3 B3+ 4 a 0.6919(3) 0.3002(5) 0.4386(5) 0.0107(10) 1
B4 B3+ 4 a 0.5585(3) 0.1673(4) 0.3352(6) 0.0106(10) 1
B5 B3+ 4 a 0.7445(3) -0.0660(5) 0.6991(5) 0.0100(9) 1
B6 B3+ 4 a 0.6917(3) 0.0333(5) 0.4376(5) 0.0106(10) 1
O1 O2- 4 a 0.71816(19) 0.1664(3) 0.5194(4) 0.0105(6) 1
O2 O2- 4 a 0.79248(19) 0.2861(3) 0.7459(3) 0.0152(7) 1
O3 O2- 4 a 0.69389(19) 0.4067(3) 0.5602(3) 0.0147(7) 1
O4 O2- 4 a 0.8840(2) 0.1739(3) 0.5355(4) 0.0160(7) 1
H1 H1+ 4 a 0.9231 0.2227 0.5794 0.024 1
O5 O2- 4 a 0.79820(19) 0.0430(3) 0.7363(3) 0.0138(7) 1
O6 O2- 4 a 0.6901(2) -0.0705(3) 0.5623(3) 0.0149(7) 1
O7 O2- 4 a 0.6015(2) 0.0451(3) 0.3589(4) 0.0160(7) 1
O8 O2- 4 a 0.75998(19) 0.3219(3) 0.3036(4) 0.0113(6) 1
O9 O2- 4 a 0.59687(19) 0.2884(3) 0.3743(4) 0.0138(6) 1
O10 O2- 4 a 0.46912(19) 0.1713(3) 0.2682(4) 0.0168(7) 1
O11 O2- 4 a 0.76498(18) 0.0085(3) 0.3099(3) 0.0135(6) 1
O12 O2- 4 a 0.9739(2) 0.0174(3) 0.2682(5) 0.0248(8) 1
H2 H1+ 4 a 0.9414 0.0616 0.1989 0.03 1
H3 H1+ 4 a 0.9727 -0.0519 0.3309 0.03 1
O13 O2- 4 a 0.8657(2) 0.1654(3) 0.0360(4) 0.0231(8) 1
H4 H1+ 4 a 0.833 0.2237 -0.0156 0.028 1
H5 H1+ 4 a 0.838 0.1217 0.112 0.028 1
O14 O2- 4 a 0.6016(8) 0.2641(13) 0.9620(14) 0.205(6) 1
H6 H1+ 4 a 0.6473 0.3173 0.9444 0.245 1
H7 H1+ 4 a 0.5667 0.2423 1.0424 0.245 1
O15 O2- 4 a 0.4908(4) 0.8526(6) 0.2013(8) 0.0664(16) 1
H8 H1+ 4 a 0.534(4) 0.908(7) 0.232(10) 0.08 1
H9 H1+ 4 a 0.481(7) 0.807(9) 0.290(8) 0.08 1
H10 H1+ 4 a 0.434(6) 0.167(7) 0.187(8) 0.10(3) 1
loop_
_atom_site_aniso_label
_atom_site_aniso_type_symbol
_atom_site_aniso_U_11
_atom_site_aniso_U_22
_atom_site_aniso_U_33
_atom_site_aniso_U_12
_atom_site_aniso_U_13
_atom_site_aniso_U_23
Mg1 Mg2+ 0.0152(7) 0.0127(8) 0.0134(7) -0.0002(5) -0.0002(6) -0.0013(7)
B1 B3+ 0.016(2) 0.010(3) 0.009(3) -0.0007(16) -0.0015(18) -0.0032(16)
B2 B3+ 0.016(2) 0.010(3) 0.010(2) -0.0022(18) 0.0010(17) -0.0020(17)
B3 B3+ 0.013(2) 0.015(3) 0.005(2) -0.0016(17) 0.0002(17) 0.0000(17)
B4 B3+ 0.012(2) 0.011(3) 0.009(2) 0.0029(16) 0.0003(16) -0.0021(17)
B5 B3+ 0.014(2) 0.008(2) 0.008(2) 0.0028(16) 0.0027(16) 0.0030(17)
B6 B3+ 0.016(2) 0.007(3) 0.009(2) 0.0018(16) -0.0021(17) -0.0031(16)
O1 O2- 0.0132(14) 0.0091(16) 0.0092(15) -0.0008(10) -0.0026(11) -0.0013(10)
O2 O2- 0.0215(15) 0.0115(16) 0.0127(16) 0.0035(11) -0.0058(11) -0.0024(12)
O3 O2- 0.0225(15) 0.0099(17) 0.0116(16) 0.0020(11) -0.0057(11) -0.0009(12)
O4 O2- 0.0140(14) 0.0200(19) 0.0139(16) -0.0065(11) -0.0002(11) 0.0025(13)
O5 O2- 0.0183(14) 0.0113(17) 0.0120(14) -0.0018(10) -0.0044(11) 0.0040(11)
O6 O2- 0.0200(14) 0.0089(16) 0.0159(16) -0.0038(11) -0.0026(12) -0.0004(12)
O7 O2- 0.0149(14) 0.0130(17) 0.0202(16) -0.0013(12) -0.0048(12) -0.0023(12)
O8 O2- 0.0119(13) 0.0105(16) 0.0114(15) 0.0018(10) 0.0016(11) 0.0026(11)
O9 O2- 0.0128(13) 0.0106(15) 0.0181(16) 0.0026(11) -0.0041(12) 0.0026(13)
O10 O2- 0.0098(13) 0.0145(16) 0.0261(18) 0.0005(10) -0.0070(14) -0.0040(13)
O11 O2- 0.0128(13) 0.0120(16) 0.0155(14) -0.0006(11) 0.0019(12) -0.0016(12)
O12 O2- 0.0205(15) 0.0174(17) 0.037(2) 0.0061(12) -0.0084(14) 0.0050(16)
O13 O2- 0.041(2) 0.0145(19) 0.0133(16) 0.0005(13) -0.0031(14) 0.0029(13)
O14 O2- 0.161(10) 0.354(17) 0.098(8) -0.110(11) 0.023(7) -0.013(9)
O15 O2- 0.039(3) 0.074(4) 0.086(4) 0.000(2) -0.022(3) -0.034(3)
#End of TTdata_426601-ICSD