
#(C) 2020 by FIZ Karlsruhe - Leibniz Institute for Information Infrastructure.  All rights reserved.
data_426915-ICSD
_database_code_ICSD 426915
_audit_creation_date 2015-08-01
_chemical_name_common 'Dicalcium nonaoxopentaborate hydroxide hydrate'
_chemical_formula_structural 'Ca2 (B5 O9) (O H) (H2 O)'
_chemical_formula_sum 'H3 B5 Ca2 O11'
_exptl_crystal_density_diffrn 2.64
_diffrn_ambient_temperature 293.
_citation_title

;
An acentric calcium borate Ca2[B5O9]*(OH)*H2O: synthesis, structure, and
nonliner optical property
;
loop_
_citation_id
_citation_journal_full
_citation_year
_citation_journal_volume
_citation_page_first
_citation_page_last
_citation_journal_id_ASTM
primary 'Inorganic Chemistry' 2014 53 11757 11763 INOCAJ
loop_
_citation_author_citation_id
_citation_author_name
primary 'Wei, Qi'
primary 'Cheng, Jian-Wen'
primary 'He, Chao'
primary 'Yang, Guo-Yu.'
_cell_length_a 10.790(5)
_cell_length_b 6.5174(18)
_cell_length_c 12.359(6)
_cell_angle_alpha 90.
_cell_angle_beta 114.975(19)
_cell_angle_gamma 90.
_cell_volume 787.84
_cell_formula_units_Z 4
_space_group_name_H-M_alt 'C 1 c 1'
_space_group_IT_number 9
loop_
_space_group_symop_id
_space_group_symop_operation_xyz
1 'x, -y, z+1/2'
2 'x, y, z'
3 'x+1/2, -y+1/2, z+1/2'
4 'x+1/2, y+1/2, z'
loop_
_atom_type_symbol
_atom_type_oxidation_number
Ca2+ 2
O2- -2
H1+ 1
O2- -2
H1+ 1
B3+ 3
loop_
_atom_site_label
_atom_site_type_symbol
_atom_site_symmetry_multiplicity
_atom_site_Wyckoff_symbol
_atom_site_fract_x
_atom_site_fract_y
_atom_site_fract_z
_atom_site_U_iso_or_equiv
_atom_site_occupancy
Ca1 Ca2+ 4 a -0.23742(12) -0.10910(18) -0.10454(10) 0.0160(3) 1
Ca2 Ca2+ 4 a -0.04541(12) -0.44102(19) -0.42284(10) 0.0168(3) 1
O1 O2- 4 a -0.2800(5) -0.4585(6) -0.4370(4) 0.0145(9) 1
O2 O2- 4 a -0.4385(5) 0.1078(7) -0.1986(4) 0.0197(10) 1
H1 H1+ 4 a -0.4128 0.2505 -0.18 0.024 1
H2 H1+ 4 a -0.5039 0.0727 -0.1679 0.024 1
O3 O2- 4 a -0.0942(4) 0.1927(6) -0.3905(3) 0.0104(8) 1
O4 O2- 4 a -0.3321(4) -0.8198(6) -0.4360(4) 0.0123(8) 1
O5 O2- 4 a -0.4095(4) -0.5772(6) -0.3313(4) 0.0137(8) 1
O6 O2- 4 a -0.3649(4) -0.2149(6) -0.3384(4) 0.0136(8) 1
O7 O2- 4 a -0.4254(4) -0.6516(7) -0.6871(4) 0.0133(9) 1
O8 O2- 4 a -0.1635(4) 0.0833(6) -0.2382(4) 0.0151(9) 1
O9 O2- 4 a -0.5151(4) -0.5967(6) -0.5407(4) 0.0143(9) 1
O10 O2- 4 a -0.2050(4) -0.1238(6) -0.4152(4) 0.0120(8) 1
O11 O2- 4 a -0.1191(5) -0.4140(7) -0.1135(4) 0.0203(10) 1
H3 H1+ 4 a -0.1131 -0.3514 -0.0511 0.024 1
B1 B3+ 4 a -0.2882(7) -0.2636(10) -0.3987(6) 0.0141(13) 1
B2 B3+ 4 a -0.3781(7) -0.6122(10) -0.4316(6) 0.0123(13) 1
B3 B3+ 4 a -0.1996(7) 0.0923(9) -0.3665(6) 0.0094(12) 1
B4 B3+ 4 a -0.5311(7) -0.6131(9) -0.6556(7) 0.0117(12) 1
B5 B3+ 4 a -0.4522(7) -0.3726(9) -0.3149(6) 0.0110(12) 1
loop_
_atom_site_aniso_label
_atom_site_aniso_type_symbol
_atom_site_aniso_U_11
_atom_site_aniso_U_22
_atom_site_aniso_U_33
_atom_site_aniso_U_12
_atom_site_aniso_U_13
_atom_site_aniso_U_23
Ca1 Ca2+ 0.0147(6) 0.0161(5) 0.0174(6) -0.0014(5) 0.0070(5) 0.0000(5)
Ca2 Ca2+ 0.0153(6) 0.0178(6) 0.0192(6) 0.0000(5) 0.0093(5) 0.0007(5)
O1 O2- 0.014(2) 0.012(2) 0.024(2) -0.0034(16) 0.0135(19) -0.0031(16)
O2 O2- 0.025(3) 0.017(2) 0.022(3) 0.0028(17) 0.015(2) 0.0023(16)
O3 O2- 0.009(2) 0.0074(19) 0.0139(19) -0.0012(15) 0.0037(17) 0.0013(14)
O4 O2- 0.0128(12) 0.0111(11) 0.0131(11) 0.0004(9) 0.0056(9) -0.0003(8)
O5 O2- 0.015(2) 0.0105(19) 0.016(2) 0.0003(16) 0.0073(19) 0.0020(15)
O6 O2- 0.013(2) 0.0116(19) 0.018(2) -0.0016(17) 0.0085(18) -0.0018(17)
O7 O2- 0.009(2) 0.013(2) 0.016(2) 0.0020(15) 0.0039(18) 0.0025(15)
O8 O2- 0.012(2) 0.019(2) 0.016(2) -0.0051(16) 0.0074(19) 0.0007(16)
O9 O2- 0.013(2) 0.013(2) 0.015(2) 0.0004(16) 0.0043(19) -0.0024(16)
O10 O2- 0.010(2) 0.0085(19) 0.018(2) -0.0002(16) 0.0063(18) -0.0013(16)
O11 O2- 0.021(3) 0.024(2) 0.020(2) 0.0032(19) 0.012(2) -0.0007(17)
B1 B3+ 0.013(3) 0.012(3) 0.018(3) -0.002(3) 0.007(3) 0.000(2)
B2 B3+ 0.013(3) 0.009(3) 0.018(3) -0.004(2) 0.009(3) -0.002(2)
B3 B3+ 0.008(3) 0.010(3) 0.010(3) -0.005(2) 0.004(3) -0.002(2)
B4 B3+ 0.015(3) 0.008(3) 0.017(3) -0.004(2) 0.012(3) -0.002(2)
B5 B3+ 0.015(3) 0.008(3) 0.010(3) -0.002(2) 0.005(3) -0.002(2)
#End of TTdata_426915-ICSD