
#(C) 2020 by FIZ Karlsruhe - Leibniz Institute for Information Infrastructure.  All rights reserved.
data_427409-ICSD
_database_code_ICSD 427409
_audit_creation_date 2015-02-01
_chemical_name_common 'Cesium lithium hexaborate'
_chemical_formula_structural 'Cs Li (B6 O10)'
_chemical_formula_sum 'B6 Cs1 Li1 O10'
_exptl_crystal_density_diffrn 2.45
_diffrn_ambient_temperature 203.
_citation_title

;
Temperature- and moisture-dependency of Cs Li B6 O10. A new phase, beta - Cs
Li B6 O10
;
loop_
_citation_id
_citation_journal_full
_citation_year
_citation_journal_volume
_citation_page_first
_citation_page_last
_citation_journal_id_ASTM
primary 'Zeitschrift fuer Kristallographie - Crystalline Materials' 2014 229 741
751 ZKCMAJ
loop_
_citation_author_citation_id
_citation_author_name
primary 'Sennova, Natalia A.'
primary 'Cordier, Gerhard'
primary 'Albert, Barbara'
primary 'Filatov, Stanislav K.'
primary 'Bubnova, Rimma S.'
primary 'Isaenko, Ludmila I.'
primary 'Gubenko, Lyubov I.'
primary 'Kloeckner, Jan-Peter'
primary 'Prosenc, Marc H.'
_cell_length_a 10.486(5)
_cell_length_b 10.494(5)
_cell_length_c 9.001(5)
_cell_angle_alpha 90.
_cell_angle_beta 90.
_cell_angle_gamma 90.
_cell_volume 990.47
_cell_formula_units_Z 4
_space_group_name_H-M_alt 'P 2 2 21'
_space_group_IT_number 17
loop_
_space_group_symop_id
_space_group_symop_operation_xyz
1 '-x, y, -z+1/2'
2 '-x, -y, z+1/2'
3 'x, -y, -z'
4 'x, y, z'
loop_
_atom_type_symbol
_atom_type_oxidation_number
Cs1+ 1
Li1+ 1
O2- -2
B3+ 3
loop_
_atom_site_label
_atom_site_type_symbol
_atom_site_symmetry_multiplicity
_atom_site_Wyckoff_symbol
_atom_site_fract_x
_atom_site_fract_y
_atom_site_fract_z
_atom_site_U_iso_or_equiv
_atom_site_occupancy
Cs1 Cs1+ 4 e 0.75332(9) 0.25329(9) 0.12480(11) 0.0262(4) 1
Li1 Li1+ 4 e 0.7370(17) 0.2353(18) -0.394(2) 0.010(2) 1
O1 O2- 4 e 0.8073(9) 0.4478(9) 0.3864(12) 0.0128(14) 1
O2 O2- 4 e 0.6937(9) 0.0542(9) 0.3775(12) 0.0131(15) 1
O3 O2- 4 e 0.6482(9) 0.3942(9) 0.5668(12) 0.0116(15) 1
O4 O2- 4 e 0.5529(9) 0.3082(9) -0.1318(13) 0.0140(14) 1
O5 O2- 4 e 0.8544(9) 0.1063(9) 0.5471(12) 0.0116(15) 1
O6 O2- 4 e 0.8935(9) 0.3523(9) -0.3109(13) 0.0118(15) 1
O7 O2- 4 e 0.9475(9) 0.1937(9) -0.1327(13) 0.0131(14) 1
O8 O2- 4 e 0.6038(9) 0.1453(9) -0.2982(13) 0.0135(15) 1
O9 O2- 2 c 1. 0.4523(14) 0.25 0.0146(18) 1
O10 O2- 2 a 0.0497(15) 0. 0.5 0.017(3) 1
O11 O2- 2 b 0.5497(14) 0.5 0. 0.0141(18) 1
O12 O2- 2 d 0.5 -0.0490(15) -0.25 0.017(2) 1
B1 B3+ 4 e 0.9841(12) 0.1005(13) 0.566(2) 0.013(2) 1
B2 B3+ 2 d 0.5 0.2284(16) -0.25 0.011(2) 1
B3 B3+ 2 b 0.7218(15) 0.5 0.5 0.010(3) 1
B4 B3+ 2 a 0.7715(15) 0. 0.5 0.012(3) 1
B5 B3+ 2 c 0. 0.2763(16) -0.25 0.013(4) 1
B6 B3+ 4 e 0.9001(12) 0.5159(11) 0.3183(19) 0.011(2) 1
B7 B3+ 4 e 0.4829(11) 0.4008(13) -0.0636(19) 0.012(2) 1
B8 B3+ 4 e 0.6020(13) 0.0160(11) -0.3094(19) 0.011(2) 1
loop_
_atom_site_aniso_label
_atom_site_aniso_type_symbol
_atom_site_aniso_U_11
_atom_site_aniso_U_22
_atom_site_aniso_U_33
_atom_site_aniso_U_12
_atom_site_aniso_U_13
_atom_site_aniso_U_23
Cs1 Cs1+ 0.0257(5) 0.0273(5) 0.0257(5) -0.0004(5) 0.0030(5) 0.0020(5)
#End of TTdata_427409-ICSD