
#(C) 2020 by FIZ Karlsruhe - Leibniz Institute for Information Infrastructure.  All rights reserved.
data_427843-ICSD
_database_code_ICSD 427843
_audit_creation_date 2015-02-01
_chemical_name_common 'Lead strontium germanate'
_chemical_formula_structural 'Pb Sr Ge O4'
_chemical_formula_sum 'Ge1 O4 Pb1 Sr1'
_chemical_name_structure_type BaNdGaO4
_exptl_crystal_density_diffrn 6.56
_diffrn_ambient_temperature 293.
_citation_title
'Synthesis and characterization of the new lead strontium germanate PbSrGeO4'
loop_
_citation_id
_citation_journal_full
_citation_year
_citation_journal_volume
_citation_page_first
_citation_page_last
_citation_journal_id_ASTM
primary 'Zeitschrift fuer Naturforschung, B: A Journal of Chemical Sciences'
2014 69 845 850 ZNBSEN
loop_
_citation_author_citation_id
_citation_author_name
primary 'Petschnig, Lucas L.'
primary 'Wurst, Klaus'
primary 'Perfler, Lukas'
primary 'Johrendt, Dirk'
primary 'Huppertz, Hubert'
_cell_length_a 9.9540(2)
_cell_length_b 7.3244(2)
_cell_length_c 5.9942(2)
_cell_angle_alpha 90
_cell_angle_beta 90
_cell_angle_gamma 90
_cell_volume 437.01
_cell_formula_units_Z 4
_space_group_name_H-M_alt 'P 21 21 21'
_space_group_IT_number 19
loop_
_space_group_symop_id
_space_group_symop_operation_xyz
1 '-x, y+1/2, -z+1/2'
2 'x+1/2, -y+1/2, -z'
3 '-x+1/2, -y, z+1/2'
4 'x, y, z'
loop_
_atom_type_symbol
_atom_type_oxidation_number
Pb2+ 2
Sr2+ 2
Ge4+ 4
O2- -2
loop_
_atom_site_label
_atom_site_type_symbol
_atom_site_symmetry_multiplicity
_atom_site_Wyckoff_symbol
_atom_site_fract_x
_atom_site_fract_y
_atom_site_fract_z
_atom_site_U_iso_or_equiv
_atom_site_occupancy
Pb1 Pb2+ 4 a 0.65884(4) 0.31141(6) 0.18412(7) 0.01072(14) 1
Sr1 Sr2+ 4 a 0.04050(9) 0.50140(13) 0.23147(15) 0.00363(18) 1
Ge1 Ge4+ 4 a 0.33723(11) 0.28763(15) 0.27370(19) 0.0055(2) 1
O1 O2- 4 a 0.1807(9) 0.1890(13) 0.2050(15) 0.0098(13) 1
O2 O2- 4 a 0.4241(10) 0.1984(16) 0.5016(17) 0.0168(18) 1
O3 O2- 4 a 0.2995(10) 0.5138(12) 0.3547(18) 0.0138(16) 1
O4 O2- 4 a 0.4428(8) 0.2631(14) 0.0391(15) 0.0099(14) 1
loop_
_atom_site_aniso_label
_atom_site_aniso_type_symbol
_atom_site_aniso_U_11
_atom_site_aniso_U_22
_atom_site_aniso_U_33
_atom_site_aniso_U_12
_atom_site_aniso_U_13
_atom_site_aniso_U_23
Pb1 Pb2+ 0.00871(19) 0.01007(19) 0.0134(2) 0.00079(13) -0.00246(12) -0.00286(12)
Sr1 Sr2+ 0.0018(3) 0.0029(4) 0.0063(3) 0.0005(2) 0.0011(2) 0.0004(3)
Ge1 Ge4+ 0.0027(4) 0.0059(4) 0.0081(4) 0.0001(3) -0.0004(3) 0.0004(3)
O1 O2- 0.006(3) 0.011(3) 0.012(3) -0.001(3) 0.001(2) 0.000(3)
O2 O2- 0.015(4) 0.021(5) 0.014(4) 0.004(4) -0.009(3) 0.004(4)
O3 O2- 0.014(4) 0.005(3) 0.022(4) -0.007(3) 0.004(3) -0.003(3)
O4 O2- 0.002(3) 0.017(4) 0.011(3) 0.000(3) 0.003(2) 0.002(3)
#End of TTdata_427843-ICSD