
#(C) 2020 by FIZ Karlsruhe - Leibniz Institute for Information Infrastructure.  All rights reserved.
data_428001-ICSD
_database_code_ICSD 428001
_audit_creation_date 2015-02-01
_chemical_name_common 'Ammonium boron bis(heptaoxodisulfate)'
_chemical_formula_structural '(N H4) (B (S2 O7)2)'
_chemical_formula_sum 'H4 B1 N1 O14 S4'
_exptl_crystal_density_diffrn 2.14
_diffrn_ambient_temperature 151.
_citation_title

;
Further new borosulfates: synthesis, crystal structure, and vibrational
spectra of A (B (S O4)2) (A = Na, K, N H4) and the crystal structures of Li5
(B (S O4)4) and N H4 (B (S2 O7)2)
;
loop_
_citation_id
_citation_journal_full
_citation_year
_citation_journal_volume
_citation_page_first
_citation_page_last
_citation_journal_id_ASTM
primary 'Zeitschrift fuer Anorganische und Allgemeine Chemie (1950) (DE)' 2014
640 2914 2921 ZAACAB
loop_
_citation_author_citation_id
_citation_author_name
primary 'Daub, Michael'
primary 'Hoeppe, Henning A.'
primary 'Hillebrecht, Harald'
_cell_length_a 11.4403(2)
_cell_length_b 14.9439(2)
_cell_length_c 13.8693(2)
_cell_angle_alpha 90
_cell_angle_beta 93.6620(10)
_cell_angle_gamma 90
_cell_volume 2366.29
_cell_formula_units_Z 8
_space_group_name_H-M_alt 'C 1 c 1'
_space_group_IT_number 9
loop_
_space_group_symop_id
_space_group_symop_operation_xyz
1 'x, -y, z+1/2'
2 'x, y, z'
3 'x+1/2, -y+1/2, z+1/2'
4 'x+1/2, y+1/2, z'
loop_
_atom_type_symbol
_atom_type_oxidation_number
N3- -3
S6+ 6
O2- -2
S6+ 6
O2- -2
S6+ 6
O2- -2
S6+ 6
O2- -2
S6+ 6
O2- -2
S6+ 6
O2- -2
S6+ 6
O2- -2
S6+ 6
O2- -2
B3+ 3
H1+ 1
loop_
_atom_site_label
_atom_site_type_symbol
_atom_site_symmetry_multiplicity
_atom_site_Wyckoff_symbol
_atom_site_fract_x
_atom_site_fract_y
_atom_site_fract_z
_atom_site_U_iso_or_equiv
_atom_site_occupancy
N1 N3- 4 a 0.8779(3) 0.9690(2) 0.8320(3) 0.0209(7) 1
N2 N3- 4 a 0.7967(3) 1.4845(2) 0.7450(2) 0.0207(7) 1
S1 S6+ 4 a 0.47363(10) 1.21879(7) 0.69532(8) 0.0224(2) 1
O1 O2- 4 a 0.4288(4) 1.2883(3) 0.7474(3) 0.0606(13) 1
O2 O2- 4 a 0.4131(5) 1.1381(3) 0.6835(3) 0.0712(16) 1
S2 S6+ 4 a 0.72105(10) 1.20208(6) 0.70779(8) 0.0195(2) 1
O3 O2- 4 a 0.7463(3) 1.2939(2) 0.7097(3) 0.0350(8) 1
O4 O2- 4 a 0.7954(3) 1.1408(2) 0.7565(2) 0.0298(7) 1
S3 S6+ 4 a 1.07793(10) 1.33153(7) 0.86188(8) 0.0223(2) 1
O5 O2- 4 a 1.1971(3) 1.3403(2) 0.8446(3) 0.0405(9) 1
O6 O2- 4 a 0.9924(4) 1.3775(2) 0.8045(3) 0.0384(9) 1
S4 S6+ 4 a 1.11426(10) 1.15216(6) 0.91299(8) 0.0220(2) 1
O7 O2- 4 a 1.0273(4) 1.0915(2) 0.9379(3) 0.0409(9) 1
O8 O2- 4 a 1.2087(3) 1.1235(2) 0.8619(3) 0.0373(8) 1
S5 S6+ 4 a 1.02614(9) 0.89503(6) 1.10214(7) 0.01522(18) 1
O9 O2- 4 a 1.0434(3) 0.94450(19) 1.1885(2) 0.0242(6) 1
O10 O2- 4 a 0.9338(3) 0.9144(2) 1.0338(2) 0.0236(6) 1
S6 S6+ 4 a 1.17022(9) 0.85018(6) 0.95278(8) 0.0183(2) 1
O11 O2- 4 a 1.2888(3) 0.8248(2) 0.9615(3) 0.0366(8) 1
O12 O2- 4 a 1.1266(3) 0.90318(19) 0.8740(2) 0.0263(7) 1
S7 S6+ 4 a 0.68810(10) 0.91891(7) 0.56869(8) 0.0214(2) 1
O13 O2- 4 a 0.7533(3) 0.9598(2) 0.6465(2) 0.0323(7) 1
O14 O2- 4 a 0.7253(3) 1.0780(2) 0.9738(2) 0.0323(7) 1
S8 S6+ 4 a 0.44971(9) 0.92492(6) 0.50368(7) 0.01827(19) 1
O15 O2- 4 a 0.4715(3) 0.9353(2) 0.4052(2) 0.0269(7) 1
O16 O2- 4 a 0.3512(3) 0.9648(2) 0.5417(2) 0.0297(7) 1
O17 O2- 4 a 0.5124(3) 1.2527(2) 0.6001(3) 0.0348(8) 1
O18 O2- 4 a 0.6935(2) 1.16949(17) 0.6037(2) 0.0177(6) 1
O19 O2- 4 a 1.0579(3) 1.3451(2) 0.9685(2) 0.0279(7) 1
O20 O2- 4 a 1.1617(3) 1.20644(17) 0.9996(2) 0.0192(6) 1
O21 O2- 4 a 1.0307(3) 0.79540(18) 1.1260(2) 0.0221(6) 1
O22 O2- 4 a 1.0865(3) 0.77142(17) 0.96257(19) 0.0180(6) 1
O23 O2- 4 a 1.1570(3) 0.67688(18) 1.0978(2) 0.0215(6) 1
O24 O2- 4 a 0.4550(3) 0.82647(18) 0.5343(2) 0.0221(6) 1
O25 O2- 4 a 0.5960(3) 1.1882(3) 0.7518(2) 0.0366(8) 1
O26 O2- 4 a 1.0428(3) 1.22784(19) 0.8498(2) 0.0236(6) 1
O27 O2- 4 a 1.1491(2) 0.90573(19) 1.0512(2) 0.0212(6) 1
O28 O2- 4 a 0.5594(3) 0.96542(17) 0.5695(2) 0.0215(6) 1
B1 B3+ 4 a 1.1056(4) 1.2838(3) 1.0425(3) 0.0173(8) 1
B2 B3+ 4 a 1.0587(4) 0.7278(3) 1.0536(3) 0.0176(9) 1
H1 H1+ 4 a 0.831(4) 0.985(4) 0.889(2) 0.05 1
H2 H1+ 4 a 0.952(2) 0.968(4) 0.875(3) 0.05 1
H3 H1+ 4 a 0.888(5) 1.011(2) 0.776(2) 0.05 1
H4 H1+ 4 a 0.839(4) 0.923(2) 0.788(3) 0.05 1
H5 H1+ 4 a 0.780(5) 1.4183(7) 0.744(4) 0.05 1
H6 H1+ 4 a 0.865(3) 1.502(4) 0.791(3) 0.05 1
H7 H1+ 4 a 0.7123(15) 1.499(4) 0.755(4) 0.05 1
H8 H1+ 4 a 0.798(5) 1.498(4) 0.6738(9) 0.05 1
loop_
_atom_site_aniso_label
_atom_site_aniso_type_symbol
_atom_site_aniso_U_11
_atom_site_aniso_U_22
_atom_site_aniso_U_33
_atom_site_aniso_U_12
_atom_site_aniso_U_13
_atom_site_aniso_U_23
N1 N3- 0.0217(19) 0.0184(17) 0.0219(17) -0.0032(14) -0.0033(15) 0.0007(13)
N2 N3- 0.0208(18) 0.0185(16) 0.0233(18) -0.0001(14) 0.0040(15) -0.0018(14)
S1 S6+ 0.0219(5) 0.0244(5) 0.0215(5) -0.0050(4) 0.0066(4) -0.0047(4)
O1 O2- 0.062(3) 0.069(3) 0.051(3) 0.028(2) -0.002(2) -0.028(2)
O2 O2- 0.095(4) 0.068(3) 0.047(3) -0.055(3) -0.019(3) 0.025(2)
S2 S6+ 0.0249(5) 0.0161(4) 0.0171(5) 0.0042(4) -0.0024(4) -0.0006(4)
O3 O2- 0.048(2) 0.0176(15) 0.038(2) 0.0023(14) -0.0092(17) -0.0030(14)
O4 O2- 0.039(2) 0.0245(15) 0.0241(16) 0.0095(13) -0.0088(14) 0.0036(12)
S3 S6+ 0.0280(6) 0.0172(5) 0.0210(5) -0.0009(4) -0.0043(4) 0.0012(4)
O5 O2- 0.036(2) 0.044(2) 0.042(2) -0.0137(16) 0.0029(17) 0.0148(17)
O6 O2- 0.053(2) 0.0271(17) 0.0327(19) 0.0088(16) -0.0180(17) 0.0011(14)
S4 S6+ 0.0286(6) 0.0151(4) 0.0216(5) 0.0006(4) -0.0033(4) -0.0056(4)
O7 O2- 0.055(2) 0.0225(16) 0.045(2) -0.0176(16) -0.0050(18) -0.0015(15)
O8 O2- 0.038(2) 0.0405(19) 0.0321(18) 0.0170(16) -0.0054(15) -0.0185(15)
S5 S6+ 0.0176(5) 0.0126(4) 0.0156(4) 0.0001(3) 0.0016(3) -0.0014(3)
O9 O2- 0.0326(18) 0.0195(14) 0.0205(14) 0.0013(12) 0.0032(13) -0.0062(11)
O10 O2- 0.0204(15) 0.0282(15) 0.0221(15) 0.0035(12) 0.0000(12) 0.0009(12)
S6 S6+ 0.0164(5) 0.0186(4) 0.0204(5) -0.0003(4) 0.0042(4) -0.0016(4)
O11 O2- 0.0203(16) 0.045(2) 0.045(2) 0.0061(14) 0.0053(16) -0.0116(17)
O12 O2- 0.0350(18) 0.0222(14) 0.0228(15) 0.0004(13) 0.0100(14) 0.0061(12)
S7 S6+ 0.0251(5) 0.0186(5) 0.0197(5) -0.0059(4) -0.0039(4) 0.0006(4)
O13 O2- 0.042(2) 0.0237(15) 0.0289(17) -0.0104(14) -0.0143(15) 0.0010(13)
O14 O2- 0.0265(17) 0.0468(19) 0.0237(16) 0.0084(14) 0.0033(14) -0.0022(15)
S8 S6+ 0.0234(5) 0.0165(4) 0.0149(4) 0.0037(4) 0.0011(4) 0.0000(3)
O15 O2- 0.0292(17) 0.0349(16) 0.0164(14) 0.0013(13) -0.0006(13) 0.0030(12)
O16 O2- 0.0331(18) 0.0285(16) 0.0278(17) 0.0107(13) 0.0043(14) -0.0048(13)
O17 O2- 0.0284(18) 0.0465(19) 0.0305(18) 0.0132(15) 0.0094(15) 0.0132(16)
O18 O2- 0.0220(15) 0.0155(13) 0.0155(13) 0.0046(11) -0.0005(11) -0.0009(10)
O19 O2- 0.039(2) 0.0224(15) 0.0217(15) 0.0141(13) -0.0034(14) -0.0081(12)
O20 O2- 0.0251(16) 0.0159(13) 0.0163(13) 0.0020(11) -0.0019(12) -0.0040(11)
O21 O2- 0.0370(18) 0.0155(13) 0.0142(13) 0.0011(12) 0.0054(13) 0.0016(10)
O22 O2- 0.0266(15) 0.0137(13) 0.0136(13) -0.0026(11) 0.0015(11) -0.0003(10)
O23 O2- 0.0255(16) 0.0146(13) 0.0233(15) -0.0004(11) -0.0068(12) -0.0006(11)
O24 O2- 0.0233(16) 0.0154(13) 0.0270(15) -0.0015(11) -0.0019(13) -0.0009(11)
O25 O2- 0.035(2) 0.053(2) 0.0221(16) 0.0113(17) 0.0104(15) 0.0142(15)
O26 O2- 0.0291(17) 0.0183(14) 0.0220(15) -0.0002(12) -0.0092(13) -0.0044(11)
O27 O2- 0.0166(14) 0.0235(14) 0.0240(16) -0.0054(11) 0.0050(12) -0.0064(12)
O28 O2- 0.0336(17) 0.0114(12) 0.0190(14) 0.0016(11) -0.0030(13) -0.0023(10)
B1 B3+ 0.019(2) 0.0171(19) 0.015(2) 0.0012(16) 0.0007(17) -0.0034(16)
B2 B3+ 0.023(2) 0.0137(18) 0.016(2) -0.0006(17) 0.0004(17) 0.0002(15)
#End of TTdata_428001-ICSD