
#(C) 2020 by FIZ Karlsruhe - Leibniz Institute for Information Infrastructure.  All rights reserved.
data_429369-ICSD
_database_code_ICSD 429369
_audit_creation_date 2016-02-01
_chemical_name_common 'Lead(II) barium germanate(IV)'
_chemical_formula_structural 'Pb Ba Ge O4'
_chemical_formula_sum 'Ba1 Ge1 O4 Pb1'
_chemical_name_structure_type BaNdGaO4
_exptl_crystal_density_diffrn 6.63
_diffrn_ambient_temperature 293.
_citation_title 'Synthesis and characterization of PbBaGeO4'
loop_
_citation_id
_citation_journal_full
_citation_year
_citation_journal_volume
_citation_page_first
_citation_page_last
_citation_journal_id_ASTM
primary 'Zeitschrift fuer Naturforschung, B: A Journal of Chemical Sciences'
2015 70 435 440 ZNBSEN
loop_
_citation_author_citation_id
_citation_author_name
primary 'Petschnig, Lucas L.'
primary 'Huppertz, Hubert'
_cell_length_a 10.216(2)
_cell_length_b 7.6341(15)
_cell_length_c 6.1813(12)
_cell_angle_alpha 90
_cell_angle_beta 90
_cell_angle_gamma 90
_cell_volume 482.07
_cell_formula_units_Z 4
_space_group_name_H-M_alt 'P 21 21 21'
_space_group_IT_number 19
loop_
_space_group_symop_id
_space_group_symop_operation_xyz
1 '-x, y+1/2, -z+1/2'
2 'x+1/2, -y+1/2, -z'
3 '-x+1/2, -y, z+1/2'
4 'x, y, z'
loop_
_atom_type_symbol
_atom_type_oxidation_number
Pb2+ 2
Ba2+ 2
Ge4+ 4
O2- -2
loop_
_atom_site_label
_atom_site_type_symbol
_atom_site_symmetry_multiplicity
_atom_site_Wyckoff_symbol
_atom_site_fract_x
_atom_site_fract_y
_atom_site_fract_z
_atom_site_U_iso_or_equiv
_atom_site_occupancy
Pb1 Pb2+ 4 a 0.65889(6) 0.30231(8) 0.18525(9) 0.02005(13) 1
Ba1 Ba2+ 4 a 0.03793(7) 0.49912(10) 0.22915(11) 0.01108(14) 1
Ge1 Ge4+ 4 a 0.33905(12) 0.29047(16) 0.26868(18) 0.0080(2) 1
O1 O2- 4 a 0.1894(9) 0.1926(14) 0.1904(17) 0.0163(17) 1
O2 O2- 4 a 0.4152(14) 0.2015(18) 0.4949(18) 0.032(3) 1
O3 O2- 4 a 0.3052(9) 0.5118(13) 0.3314(17) 0.0161(18) 1
O4 O2- 4 a 0.4473(10) 0.2637(13) 0.0459(15) 0.0147(19) 1
loop_
_atom_site_aniso_label
_atom_site_aniso_type_symbol
_atom_site_aniso_U_11
_atom_site_aniso_U_22
_atom_site_aniso_U_33
_atom_site_aniso_U_12
_atom_site_aniso_U_13
_atom_site_aniso_U_23
Pb1 Pb2+ 0.0214(2) 0.0198(2) 0.0190(2) 0.0055(2) -0.0026(2) -0.0016(2)
Ba1 Ba2+ 0.0134(3) 0.0072(3) 0.0126(3) -0.0002(3) 0.0023(2) -0.0001(3)
Ge1 Ge4+ 0.0083(5) 0.0078(5) 0.0080(5) 0.0004(5) -0.0011(4) 0.0004(4)
O1 O2- 0.011(4) 0.014(4) 0.024(4) -0.005(3) -0.001(3) -0.006(4)
O2 O2- 0.052(8) 0.027(6) 0.019(5) 0.007(7) -0.019(5) 0.008(6)
O3 O2- 0.020(4) 0.004(4) 0.024(4) -0.001(3) 0.002(4) -0.004(4)
O4 O2- 0.016(5) 0.018(5) 0.010(4) 0.003(4) 0.008(3) -0.002(3)
#End of TTdata_429369-ICSD