
#(C) 2020 by FIZ Karlsruhe - Leibniz Institute for Information Infrastructure.  All rights reserved.
data_431283-ICSD
_database_code_ICSD 431283
_audit_creation_date 2017-08-01
_chemical_name_common 'Tribismuth tellurate(VI) borate'
_chemical_formula_structural 'Bi3 (Te O6) (B O3)'
_chemical_formula_sum 'B1 Bi3 O9 Te1'
_exptl_crystal_density_diffrn 7.74
_diffrn_ambient_temperature 293.
_citation_title

;
Synthesis, crystal structure, and properties of Bi3TeBO9 or Bi3(TeO6)(BO3): a
non-centrosymmetric borate-tellurate(VI) of bismuth
;
loop_
_citation_id
_citation_journal_full
_citation_year
_citation_journal_volume
_citation_page_first
_citation_page_last
_citation_journal_id_ASTM
primary 'Chemistry - A European Journal' 2017 23 1331 1337 CEUJED
loop_
_citation_author_citation_id
_citation_author_name
primary 'Daub, Michael'
primary 'Krummer, Michael'
primary 'Hoffmann, Anke'
primary 'Bayarjargal, Lkhamsuren'
primary 'Hillebrecht, Harald'
_cell_length_a 8.7454(16)
_cell_length_b 8.7454(16)
_cell_length_c 5.8911(11)
_cell_angle_alpha 90
_cell_angle_beta 90
_cell_angle_gamma 120
_cell_volume 390.19
_cell_formula_units_Z 2
_space_group_name_H-M_alt 'P 63'
_space_group_IT_number 173
loop_
_space_group_symop_id
_space_group_symop_operation_xyz
1 'x-y, x, z+1/2'
2 'y, -x+y, z+1/2'
3 '-x, -y, z+1/2'
4 '-x+y, -x, z'
5 '-y, x-y, z'
6 'x, y, z'
loop_
_atom_type_symbol
_atom_type_oxidation_number
Bi3+ 3
Te6+ 6
O2- -2
B3+ 3
loop_
_atom_site_label
_atom_site_type_symbol
_atom_site_symmetry_multiplicity
_atom_site_Wyckoff_symbol
_atom_site_fract_x
_atom_site_fract_y
_atom_site_fract_z
_atom_site_U_iso_or_equiv
_atom_site_occupancy
Bi1 Bi3+ 6 c 0.34630(7) 0.29845(7) 0.2763(4) 0.0263(4) 1
Te1 Te6+ 2 b 0.3333 0.6667 0.25 0.0226(5) 1
O1 O2- 6 c 0.1246(17) 0.584(2) 0.065(2) 0.027(3) 1
O2 O2- 6 c 0.0791(18) 0.1795(18) 0.099(2) 0.031(3) 1
O3 O2- 6 c 0.2474(16) 0.4622(17) 0.4369(18) 0.028(3) 1
B1 B3+ 2 a 0. 0. 0.096(8) 0.037(9) 1
loop_
_atom_site_aniso_label
_atom_site_aniso_type_symbol
_atom_site_aniso_U_11
_atom_site_aniso_U_22
_atom_site_aniso_U_33
_atom_site_aniso_U_12
_atom_site_aniso_U_13
_atom_site_aniso_U_23
Bi1 Bi3+ 0.0291(5) 0.0288(5) 0.0219(6) 0.0152(3) 0.0003(3) -0.0013(3)
Te1 Te6+ 0.0257(6) 0.0257(6) 0.0165(10) 0.0128(3) 0. 0.
O1 O2- 0.024(6) 0.029(7) 0.028(6) 0.013(6) 0.000(6) 0.001(6)
O2 O2- 0.032(7) 0.027(7) 0.033(6) 0.013(5) -0.008(6) 0.000(5)
O3 O2- 0.034(7) 0.027(6) 0.022(7) 0.014(6) 0.002(5) 0.009(5)
B1 B3+ 0.035(11) 0.035(11) 0.04(2) 0.017(5) 0. 0.
#End of TTdata_431283-ICSD