
#(C) 2020 by FIZ Karlsruhe - Leibniz Institute for Information Infrastructure.  All rights reserved.
data_431201-ICSD
_database_code_ICSD 431201
_audit_creation_date 2017-08-01
_chemical_name_common 'Calcium borogermanate'
_chemical_formula_structural 'Ca12 Ge17 B8 O58'
_chemical_formula_sum 'B8 Ca12 Ge17 O58'
_exptl_crystal_density_diffrn 4.24
_diffrn_ambient_temperature 275.
_citation_title 'Synthesis and structural characterization of Ca12Ge17B8O58'
loop_
_citation_id
_citation_journal_full
_citation_year
_citation_journal_volume
_citation_page_first
_citation_page_last
_citation_journal_id_ASTM
primary 'Zeitschrift fuer Naturforschung, B: A Journal of Chemical Sciences'
2016 71 1141 1146 ZNBSEN
loop_
_citation_author_citation_id
_citation_author_name
primary 'Braeuchle, Sebastian'
primary 'Wurst, Klaus'
primary 'Huppertz, Hubert'
_cell_length_a 15.0528(8)
_cell_length_b 15.0528(8)
_cell_length_c 4.7231(2)
_cell_angle_alpha 90
_cell_angle_beta 90
_cell_angle_gamma 90
_cell_volume 1070.19
_cell_formula_units_Z 1
_space_group_name_H-M_alt 'P -4'
_space_group_IT_number 81
loop_
_space_group_symop_id
_space_group_symop_operation_xyz
1 '-y, x, -z'
2 'y, -x, -z'
3 '-x, -y, z'
4 'x, y, z'
loop_
_atom_type_symbol
_atom_type_oxidation_number
Ge4+ 4
Ca2+ 2
O2- -2
B3+ 3
loop_
_atom_site_label
_atom_site_type_symbol
_atom_site_symmetry_multiplicity
_atom_site_Wyckoff_symbol
_atom_site_fract_x
_atom_site_fract_y
_atom_site_fract_z
_atom_site_U_iso_or_equiv
_atom_site_occupancy
Ge1 Ge4+ 4 h 0.71772(2) 0.81076(2) 0.50096(11) 0.00420(4) 1
Ge2 Ge4+ 4 h 0.57951(2) 0.78370(2) 1.00144(11) 0.00416(4) 1
Ge3 Ge4+ 1 b 1. 1. 0.5 0.00412(7) 1
Ge4 Ge4+ 4 h 0.53978(2) 0.64481(2) 0.50562(11) 0.00460(4) 1
Ge5 Ge4+ 4 h 0.48693(2) 0.89366(2) 0.50148(12) 0.00443(4) 1
Ca1 Ca2+ 4 h 0.89082(3) 0.85484(3) 0.9925(2) 0.00638(7) 1
Ca2 Ca2+ 4 h 0.36340(3) 0.75106(3) 0.9949(2) 0.00682(7) 1
Ca3 Ca2+ 4 h 1.00858(3) 0.67048(3) 0.9908(2) 0.00763(8) 1
O1 O2- 4 h 0.77131(14) 0.89579(14) 0.6865(4) 0.0059(3) 1
O2 O2- 4 h 0.90365(13) 0.98363(14) 0.7020(4) 0.0059(3) 1
O3 O2- 4 h 0.81886(15) 0.96965(13) 0.2455(5) 0.0070(3) 1
O4 O2- 4 h 0.76121(14) 1.05043(14) 0.6546(4) 0.0063(3) 1
O5 O2- 4 h 0.61612(14) 1.11002(15) 0.6738(4) 0.0078(3) 1
O6 O2- 4 h 0.74411(15) 1.20473(13) 0.6749(5) 0.0072(4) 1
O7 O2- 4 h 0.70577(14) 1.12664(14) 0.2330(4) 0.0068(3) 1
O8 O2- 2 g 0.5 1. 0.3341(7) 0.0098(5) 1
O9 O2- 4 h 0.56710(14) 0.88733(15) 0.7716(4) 0.0065(3) 1
O10 O2- 4 h 0.44194(14) 0.60329(15) 0.3442(5) 0.0097(4) 1
O11 O2- 4 h 0.60642(13) 0.68580(13) 0.2306(4) 0.0062(3) 1
O12 O2- 4 h 0.48337(13) 0.81459(14) 0.2299(5) 0.0065(3) 1
O13 O2- 4 h 0.50129(14) 0.71818(14) 0.7689(4) 0.0063(3) 1
O14 O2- 4 h 0.67190(14) 0.74558(14) 0.7702(4) 0.0061(3) 1
O15 O2- 4 h 0.65114(14) 0.85616(13) 0.2354(4) 0.0065(3) 1
B1 B3+ 4 h 0.81247(19) 0.97612(18) 0.5378(7) 0.0059(6) 1
B2 B3+ 4 h 0.70838(17) 1.12165(17) 0.5284(8) 0.0047(5) 1
loop_
_atom_site_aniso_label
_atom_site_aniso_type_symbol
_atom_site_aniso_U_11
_atom_site_aniso_U_22
_atom_site_aniso_U_33
_atom_site_aniso_U_12
_atom_site_aniso_U_13
_atom_site_aniso_U_23
Ge1 Ge4+ 0.00402(8) 0.00452(8) 0.00404(8) -0.00014(7) -0.00017(18) 0.00038(19)
Ge2 Ge4+ 0.00382(8) 0.00445(8) 0.00422(8) -0.00001(6) 0.00016(18) -0.00006(18)
Ge3 Ge4+ 0.00379(10) 0.00379(10) 0.00479(17) 0. 0. 0.
Ge4 Ge4+ 0.00454(8) 0.00432(8) 0.00494(9) 0.00009(6) 0.00075(17) 0.00012(19)
Ge5 Ge4+ 0.00429(8) 0.00466(8) 0.00435(9) 0.00017(7) -0.00039(19) -0.00002(19)
Ca1 Ca2+ 0.00668(15) 0.00592(15) 0.00653(18) 0.00090(13) -0.0010(3) 0.0002(3)
Ca2 Ca2+ 0.00477(15) 0.00818(16) 0.00752(17) -0.00097(12) 0.0002(3) -0.0007(4)
Ca3 Ca2+ 0.00622(16) 0.00886(16) 0.00780(19) 0.00160(13) 0.0009(3) 0.0003(3)
O1 O2- 0.0072(8) 0.0037(7) 0.0069(8) -0.0035(6) -0.0018(6) 0.0008(7)
O2 O2- 0.0037(7) 0.0070(8) 0.0072(8) -0.0002(6) 0.0014(6) 0.0003(6)
O3 O2- 0.0090(8) 0.0065(8) 0.0055(8) 0.0009(6) 0.0006(7) -0.0006(7)
O4 O2- 0.0087(8) 0.0053(8) 0.0050(7) 0.0030(6) -0.0007(7) 0.0000(6)
O5 O2- 0.0036(8) 0.0122(9) 0.0075(8) -0.0006(7) 0.0000(6) 0.0019(7)
O6 O2- 0.0112(9) 0.0034(8) 0.0070(9) -0.0024(6) 0.0020(7) 0.0000(6)
O7 O2- 0.0078(9) 0.0068(8) 0.0057(8) 0.0013(6) -0.0004(7) 0.0000(7)
O8 O2- 0.0175(14) 0.0032(11) 0.0086(12) 0.0010(10) 0. 0.
O9 O2- 0.0073(8) 0.0067(8) 0.0055(8) -0.0006(6) -0.0028(7) 0.0013(7)
O10 O2- 0.0058(8) 0.0134(9) 0.0100(10) -0.0063(7) 0.0003(7) -0.0010(7)
O11 O2- 0.0060(8) 0.0062(8) 0.0064(8) -0.0012(7) 0.0018(7) 0.0025(6)
O12 O2- 0.0049(7) 0.0072(8) 0.0073(8) -0.0003(6) 0.0009(6) -0.0036(7)
O13 O2- 0.0054(7) 0.0072(7) 0.0063(8) 0.0007(6) 0.0003(7) -0.0036(7)
O14 O2- 0.0060(8) 0.0061(7) 0.0063(8) 0.0006(6) 0.0025(6) 0.0025(7)
O15 O2- 0.0062(8) 0.0064(8) 0.0070(8) -0.0003(6) -0.0035(6) 0.0012(7)
B1 B3+ 0.0050(9) 0.0055(9) 0.0072(17) -0.0002(7) -0.0006(9) -0.0004(9)
B2 B3+ 0.0051(9) 0.0032(8) 0.0058(15) 0.0007(6) 0.0004(10) 0.0003(10)
#End of TTdata_431201-ICSD