
#(C) 2020 by FIZ Karlsruhe - Leibniz Institute for Information Infrastructure.  All rights reserved.
data_431892-ICSD
_database_code_ICSD 431892
_audit_creation_date 2017-08-01
_chemical_name_common 'Potassium borophosphate(V) fluoride'
_chemical_formula_structural 'K B (P O4) F'
_chemical_formula_sum 'B1 F1 K1 O4 P1'
_exptl_crystal_density_diffrn 2.68
_diffrn_ambient_temperature 203.
_citation_title 'KB(PO4)F. A novel acentric deep-ultraviolet material'
loop_
_citation_id
_citation_journal_full
_citation_year
_citation_journal_volume
_citation_page_first
_citation_page_last
_citation_journal_id_ASTM
primary 'Dalton Transactions' 2017 46 1677 1683 DTARAF
loop_
_citation_author_citation_id
_citation_author_name
primary 'Jiang, Ji-Hong'
primary 'Zhang, Lin-Chuan'
primary 'Huang, Ya-Xi'
primary 'Sun, Zhi-Mei'
primary 'Pan, Yuanming'
primary 'Mi, Jin-Xiao'
_cell_length_a 4.2917(9)
_cell_length_b 7.8624(15)
_cell_length_c 12.0505(19)
_cell_angle_alpha 90
_cell_angle_beta 90.44(3)
_cell_angle_gamma 90
_cell_volume 406.6
_cell_formula_units_Z 4
_space_group_name_H-M_alt 'C 1 c 1'
_space_group_IT_number 9
loop_
_space_group_symop_id
_space_group_symop_operation_xyz
1 'x, -y, z+1/2'
2 'x, y, z'
3 'x+1/2, -y+1/2, z+1/2'
4 'x+1/2, y+1/2, z'
loop_
_atom_type_symbol
_atom_type_oxidation_number
K1+ 1
P5+ 5
B3+ 3
F1- -1
O2- -2
loop_
_atom_site_label
_atom_site_type_symbol
_atom_site_symmetry_multiplicity
_atom_site_Wyckoff_symbol
_atom_site_fract_x
_atom_site_fract_y
_atom_site_fract_z
_atom_site_U_iso_or_equiv
_atom_site_occupancy
K1 K1+ 4 a 0.1330(4) 0.3480(3) 0.3424(2) 0.0169(7) 1
P1 P5+ 4 a 0.7180(5) 0.4835(3) 0.6223(2) 0.0095(7) 1
B1 B3+ 4 a 0.225(3) 0.6597(15) 0.5421(11) 0.011(2) 1
F1 F1- 4 a 0.1021(18) 0.6732(9) 0.4333(6) 0.0187(16) 1
O1 O2- 4 a 0.467(2) 0.5319(10) 0.5329(7) 0.0147(17) 1
O2 O2- 4 a 0.9810(18) 0.6177(10) 0.6195(7) 0.0121(16) 1
O3 O2- 4 a 0.8694(19) 0.3206(9) 0.5740(8) 0.0155(18) 1
O4 O2- 4 a 0.603(2) 0.4691(10) 0.7369(8) 0.0183(18) 1
loop_
_atom_site_aniso_label
_atom_site_aniso_type_symbol
_atom_site_aniso_U_11
_atom_site_aniso_U_22
_atom_site_aniso_U_33
_atom_site_aniso_U_12
_atom_site_aniso_U_13
_atom_site_aniso_U_23
K1 K1+ 0.0199(12) 0.0210(14) 0.0097(11) 0.0024(10) 0.0004(8) 0.0000(9)
P1 P5+ 0.0105(12) 0.0086(12) 0.0095(15) -0.0008(9) 0.0012(9) 0.0006(9)
B1 B3+ 0.008(6) 0.013(5) 0.012(6) -0.003(5) 0.001(5) 0.008(4)
F1 F1- 0.020(4) 0.027(4) 0.009(4) 0.003(3) 0.000(3) 0.000(3)
O1 O2- 0.018(4) 0.014(4) 0.011(4) 0.005(3) -0.004(3) -0.001(3)
O2 O2- 0.014(4) 0.012(3) 0.010(4) 0.000(3) 0.006(3) -0.004(3)
O3 O2- 0.012(4) 0.011(3) 0.023(5) -0.003(3) 0.002(3) 0.004(3)
O4 O2- 0.019(4) 0.021(4) 0.015(4) -0.005(3) 0.004(3) 0.000(3)
#End of TTdata_431892-ICSD