
#(C) 2020 by FIZ Karlsruhe - Leibniz Institute for Information Infrastructure.  All rights reserved.
data_431863-ICSD
_database_code_ICSD 431863
_audit_creation_date 2017-08-01
_chemical_name_common 'Dirubidium dialuminium diborate (RABO) - beta'
_chemical_formula_structural 'Rb2 Al2 B2 O7'
_chemical_formula_sum 'Al2 B2 O7 Rb2'
_exptl_crystal_density_diffrn 3.12
_diffrn_ambient_temperature 296.
_citation_title

;
Beryllium-free beta-Rb2Al2B2O7 as a possible deep-ultraviolet nonlinear
optical material replacement for KBe2BO3F2
;
loop_
_citation_id
_citation_journal_full
_citation_year
_citation_journal_volume
_citation_page_first
_citation_page_last
_citation_journal_id_ASTM
primary 'Angewandte Chemie, International Edition' 2017 56 2969 2973 ACIEF5
loop_
_citation_author_citation_id
_citation_author_name
primary 'Tran, T. Thao'
primary 'Koocher, Nathan Z.'
primary 'Rondinelli, James M.'
primary 'Halasyamani, P. Shiv'
_cell_length_a 8.6932(11)
_cell_length_b 8.6932(11)
_cell_length_c 8.7606(11)
_cell_angle_alpha 90.
_cell_angle_beta 90.
_cell_angle_gamma 120.
_cell_volume 573.35
_cell_formula_units_Z 3
_space_group_name_H-M_alt 'P 3 2 1'
_space_group_IT_number 150
loop_
_space_group_symop_id
_space_group_symop_operation_xyz
1 'x-y, -y, -z'
2 '-x, -x+y, -z'
3 'y, x, -z'
4 '-x+y, -x, z'
5 '-y, x-y, z'
6 'x, y, z'
loop_
_atom_type_symbol
_atom_type_oxidation_number
Rb1+ 1
Al3+ 3
O2- -2
B3+ 3
loop_
_atom_site_label
_atom_site_type_symbol
_atom_site_symmetry_multiplicity
_atom_site_Wyckoff_symbol
_atom_site_fract_x
_atom_site_fract_y
_atom_site_fract_z
_atom_site_U_iso_or_equiv
_atom_site_occupancy
Rb1 Rb1+ 3 e 0. 0.36024(5) 0. 0.01804(17) 1
Rb2 Rb1+ 3 f 0. 0.30464(5) 0.5 0.01696(17) 1
Al1 Al3+ 2 c 0. 0. 0.19415(19) 0.0063(5) 1
Al2 Al3+ 2 d 0.3333 0.6667 0.2868(3) 0.0111(6) 1
Al3 Al3+ 2 d 0.3333 0.6667 0.6822(3) 0.0119(6) 1
O1 O2- 6 g 0.5094(6) 0.3863(4) 0.2514(4) 0.0223(7) 1
O2 O2- 6 g 0.2824(3) 0.4579(3) 0.2192(3) 0.0134(7) 1
O3 O2- 6 g 0.2083(3) 0.1599(3) 0.2659(3) 0.0119(7) 1
O4 O2- 2 d 0.3333 0.6667 0.4851(6) 0.0294(13) 1
O5 O2- 1 a 0. 0. 0. 0.0274(17) 1
B1 B3+ 6 g 0.3376(9) 0.3294(12) 0.2490(6) 0.0128(16) 1
loop_
_atom_site_aniso_label
_atom_site_aniso_type_symbol
_atom_site_aniso_U_11
_atom_site_aniso_U_22
_atom_site_aniso_U_33
_atom_site_aniso_U_12
_atom_site_aniso_U_13
_atom_site_aniso_U_23
Rb1 Rb1+ 0.0233(3) 0.0168(2) 0.0162(3) 0.01167(14) -0.0031(4) -0.0015(2)
Rb2 Rb1+ 0.0173(3) 0.0167(2) 0.0170(3) 0.00864(14) -0.0055(4) -0.0028(2)
Al1 Al3+ 0.0066(6) 0.0066(6) 0.0057(12) 0.0033(3) 0. 0.
Al2 Al3+ 0.0079(10) 0.0079(10) 0.0175(10) 0.0040(5) 0. 0.
Al3 Al3+ 0.0075(9) 0.0075(9) 0.0209(13) 0.0037(5) 0. 0.
O1 O2- 0.0103(18) 0.0122(12) 0.047(2) 0.0078(16) -0.0043(12) 0.0008(11)
O2 O2- 0.0109(11) 0.0098(16) 0.0235(15) 0.0082(14) -0.0051(12) -0.0072(10)
O3 O2- 0.0066(14) 0.0084(14) 0.0186(17) 0.0022(10) -0.0050(9) 0.0008(11)
O4 O2- 0.034(2) 0.034(2) 0.020(2) 0.0171(10) 0. 0.
O5 O2- 0.035(3) 0.035(3) 0.012(3) 0.0176(13) 0. 0.
B1 B3+ 0.008(4) 0.008(5) 0.021(5) 0.0067(15) -0.009(17) -0.0091(19)
#End of TTdata_431863-ICSD