
#(C) 2020 by FIZ Karlsruhe - Leibniz Institute for Information Infrastructure.  All rights reserved.
data_432814-ICSD
_database_code_ICSD 432814
_audit_creation_date 2018-02-01
_chemical_name_common 'Calcium hydroxoborate hydrate'
_chemical_formula_structural 'Ca2 (B5 O8 (O H))2 (B (O H)3) (H2 O)'
_chemical_formula_sum 'H7 B11 Ca2 O22'
_chemical_name_structure_type Sr2(B5O8OH)2B(OH)3H2O
_exptl_crystal_density_diffrn 2.4
_diffrn_ambient_temperature 293.
_citation_title

;
Two deep-ultraviolet nonlinear optical alkaline-earth metal borates based on
different types of oxoboron clusters
;
loop_
_citation_id
_citation_journal_full
_citation_year
_citation_journal_volume
_citation_page_first
_citation_page_last
_citation_journal_id_ASTM
primary 'Dalton Transactions' 2017 46 7911 7916 DTARAF
loop_
_citation_author_citation_id
_citation_author_name
primary 'Wei, Qi'
primary 'Sun, Li'
primary 'Zhang, Jie'
primary 'Yang, Guo-Yu'
_cell_length_a 6.5100(4)
_cell_length_b 20.4228(8)
_cell_length_c 6.6513(5)
_cell_angle_alpha 90.
_cell_angle_beta 119.029(9)
_cell_angle_gamma 90.
_cell_volume 773.21
_cell_formula_units_Z 2
_space_group_name_H-M_alt 'P 1 21 1'
_space_group_IT_number 4
loop_
_space_group_symop_id
_space_group_symop_operation_xyz
1 '-x, y+1/2, -z'
2 'x, y, z'
loop_
_atom_type_symbol
_atom_type_oxidation_number
Ca2+ 2
B3+ 3
O2- -2
H1+ 1
O2- -2
H1+ 1
O2- -2
H1+ 1
O2- -2
H1+ 1
O2- -2
H1+ 1
O2- -2
H1+ 1
O2- -2
loop_
_atom_site_label
_atom_site_type_symbol
_atom_site_symmetry_multiplicity
_atom_site_Wyckoff_symbol
_atom_site_fract_x
_atom_site_fract_y
_atom_site_fract_z
_atom_site_U_iso_or_equiv
_atom_site_occupancy
Ca1 Ca2+ 2 a 0.69336(16) 0.77196(4) 0.37557(16) 0.0173(3) 1
Ca2 Ca2+ 2 a 1.00434(16) 0.65639(4) 0.07703(17) 0.0155(2) 1
B1 B3+ 2 a 1.1967(9) 0.7993(2) 0.4771(9) 0.0093(10) 1
B2 B3+ 2 a 1.0198(8) 0.7969(2) 0.0586(9) 0.0074(10) 1
B3 B3+ 2 a 1.2840(9) 0.7806(3) 0.8812(10) 0.0139(11) 1
B4 B3+ 2 a 1.5973(8) 0.7728(2) 0.7875(9) 0.0129(10) 1
B5 B3+ 2 a 1.0984(9) 0.9019(3) 0.2501(10) 0.0158(11) 1
B6 B3+ 2 a 0.6762(10) 0.6215(3) 0.3884(10) 0.0153(12) 1
B7 B3+ 2 a 0.4970(9) 0.6209(3) -0.0329(9) 0.0142(12) 1
B8 B3+ 2 a 0.5978(10) 0.5172(3) 0.1835(10) 0.0188(12) 1
B9 B3+ 2 a 0.0966(9) 0.6442(2) -0.3418(9) 0.0118(11) 1
B10 B3+ 2 a 0.4144(9) 0.6374(2) -0.4327(9) 0.0111(10) 1
B11 B3+ 2 a 0.6907(10) 0.9227(3) 0.4213(11) 0.0239(13) 1
O1 O2- 2 a 1.0281(6) 0.54509(18) 0.1262(6) 0.0278(9) 1
H1 H1+ 2 a 1.0881 0.5274 0.2729 0.033 1
H2 H1+ 2 a 0.9779 0.5176 -0.0005 0.033 1
O2 O2- 2 a 0.7693(6) 0.88160(19) 0.6036(7) 0.0302(9) 1
H3 H1+ 2 a 0.8663 0.8564 0.6015 0.045 1
O3 O2- 2 a 0.6076(7) 0.88707(18) 0.2249(7) 0.0296(9) 1
H4 H1+ 2 a 0.5499 0.9117 0.1136 0.044 1
O4 O2- 2 a 0.5919(7) 0.44991(18) 0.1694(6) 0.0305(9) 1
H5 H1+ 2 a 0.6629 0.4343 0.2991 0.046 1
O5 O2- 2 a 0.4844(6) 0.54941(17) -0.0204(6) 0.0168(7) 1
O6 O2- 2 a 1.2030(5) 0.87090(15) 0.4571(6) 0.0146(7) 1
O7 O2- 2 a 0.1751(6) 0.63680(15) -0.5025(5) 0.0132(7) 1
O8 O2- 2 a 1.4418(5) 0.77355(16) 0.5606(5) 0.0127(6) 1
O9 O2- 2 a 0.2551(5) 0.64616(16) -0.1138(5) 0.0154(7) 1
O10 O2- 2 a 1.5234(5) 0.77945(17) 0.9491(5) 0.0139(7) 1
O11 O2- 2 a 1.8289(5) 0.76425(15) 0.8579(5) 0.0121(7) 1
O12 O2- 2 a -0.1332(5) 0.65151(17) -0.4087(6) 0.0166(7) 1
O13 O2- 2 a 1.1246(5) 0.78283(16) 0.6541(5) 0.0133(7) 1
O14 O2- 2 a 0.5750(5) 0.63634(15) -0.2063(5) 0.0138(7) 1
O15 O2- 2 a 1.2411(5) 0.77714(16) 1.0608(5) 0.0144(7) 1
O16 O2- 2 a 0.7007(6) 0.54968(17) 0.3882(6) 0.0172(8) 1
O17 O2- 2 a 1.0298(5) 0.76874(16) 0.2660(5) 0.0114(6) 1
O18 O2- 2 a 0.6662(6) 0.65052(15) 0.1803(6) 0.0131(7) 1
O19 O2- 2 a 0.9953(5) 0.86720(15) 0.0489(6) 0.0153(7) 1
O20 O2- 2 a 1.0905(7) 0.96805(17) 0.2327(6) 0.0296(9) 1
H6 H1+ 2 a 1.1611 0.9842 0.3615 0.044 1
O21 O2- 2 a 0.6951(7) 0.98813(17) 0.4368(7) 0.0349(10) 1
H7 H1+ 2 a 0.6395 1.0041 0.3078 0.052 1
O22 O2- 2 a 0.4551(5) 0.63903(15) -0.6147(6) 0.0147(7) 1
loop_
_atom_site_aniso_label
_atom_site_aniso_type_symbol
_atom_site_aniso_U_11
_atom_site_aniso_U_22
_atom_site_aniso_U_33
_atom_site_aniso_U_12
_atom_site_aniso_U_13
_atom_site_aniso_U_23
Ca1 Ca2+ 0.0142(5) 0.0237(6) 0.0146(5) 0.0009(4) 0.0075(4) 0.0003(5)
Ca2 Ca2+ 0.0137(5) 0.0191(5) 0.0138(5) 0.0011(4) 0.0067(4) 0.0012(4)
B1 B3+ 0.0085(17) 0.0140(17) 0.0077(18) -0.0001(14) 0.0056(14) -0.0006(14)
B2 B3+ 0.0043(17) 0.0128(18) 0.0073(19) 0.0010(13) 0.0045(14) 0.0001(14)
B3 B3+ 0.012(2) 0.014(2) 0.020(3) 0.002(2) 0.011(2) 0.002(2)
B4 B3+ 0.012(2) 0.012(2) 0.020(3) 0.001(2) 0.011(2) -0.002(2)
B5 B3+ 0.010(2) 0.022(3) 0.017(3) -0.002(2) 0.008(2) -0.002(2)
B6 B3+ 0.018(3) 0.017(3) 0.012(3) 0.001(2) 0.008(3) 0.006(2)
B7 B3+ 0.009(2) 0.022(3) 0.012(3) 0.001(2) 0.005(2) 0.002(2)
B8 B3+ 0.015(3) 0.024(3) 0.015(3) 0.002(2) 0.006(2) 0.005(2)
B9 B3+ 0.011(2) 0.015(3) 0.007(3) -0.0012(18) 0.002(2) 0.0006(18)
B10 B3+ 0.010(3) 0.015(2) 0.007(3) -0.0004(19) 0.004(2) -0.0016(19)
B11 B3+ 0.017(3) 0.027(3) 0.022(3) -0.001(2) 0.005(3) 0.006(3)
O1 O2- 0.040(2) 0.0240(19) 0.012(2) -0.0023(17) 0.0065(18) -0.0035(16)
O2 O2- 0.033(2) 0.0245(19) 0.032(2) 0.0040(16) 0.0149(19) 0.0067(16)
O3 O2- 0.046(2) 0.0203(19) 0.018(2) 0.0013(17) 0.0114(19) 0.0007(16)
O4 O2- 0.048(2) 0.0195(17) 0.0104(19) 0.0055(16) 0.0031(18) 0.0047(14)
O5 O2- 0.0154(17) 0.0197(18) 0.0125(19) -0.0016(14) 0.0045(15) 0.0002(15)
O6 O2- 0.0137(16) 0.0151(17) 0.0127(19) 0.0002(13) 0.0044(15) -0.0008(12)
O7 O2- 0.0064(16) 0.0244(18) 0.0073(18) -0.0007(13) 0.0022(14) -0.0010(13)
O8 O2- 0.0089(14) 0.0202(17) 0.0054(15) -0.0003(14) 0.0007(12) 0.0026(14)
O9 O2- 0.0117(16) 0.0213(19) 0.0162(19) 0.0007(14) 0.0090(15) -0.0030(14)
O10 O2- 0.0123(16) 0.0212(18) 0.0083(16) 0.0029(15) 0.0050(13) 0.0009(14)
O11 O2- 0.0071(14) 0.0196(17) 0.0086(16) -0.0008(14) 0.0031(12) -0.0020(14)
O12 O2- 0.0111(16) 0.0241(17) 0.0179(18) -0.0028(15) 0.0097(15) -0.0074(16)
O13 O2- 0.0110(15) 0.0219(18) 0.0080(16) 0.0030(13) 0.0054(14) 0.0031(13)
O14 O2- 0.0066(15) 0.0243(18) 0.0104(18) -0.0004(12) 0.0042(14) 0.0008(13)
O15 O2- 0.0099(15) 0.0235(17) 0.0084(16) -0.0009(14) 0.0033(13) -0.0009(15)
O16 O2- 0.0241(19) 0.0143(17) 0.018(2) 0.0003(15) 0.0145(17) -0.0016(15)
O17 O2- 0.0122(14) 0.0161(15) 0.0055(15) -0.0001(15) 0.0039(13) 0.0001(13)
O18 O2- 0.0156(16) 0.0160(17) 0.0136(18) -0.0036(15) 0.0116(15) -0.0015(14)
O19 O2- 0.0174(17) 0.0150(17) 0.0107(18) 0.0001(13) 0.0046(15) 0.0023(13)
O20 O2- 0.048(2) 0.0186(18) 0.013(2) -0.0080(16) 0.0071(18) -0.0020(14)
O21 O2- 0.057(3) 0.023(2) 0.019(2) 0.0003(18) 0.013(2) 0.0026(16)
O22 O2- 0.0092(15) 0.0259(19) 0.0101(17) 0.0007(12) 0.0056(14) 0.0013(13)
#End of TTdata_432814-ICSD