
#(C) 2020 by FIZ Karlsruhe - Leibniz Institute for Information Infrastructure.  All rights reserved.
data_433331-ICSD
_database_code_ICSD 433331
_audit_creation_date 2018-02-01
_chemical_name_common 'Dipotassium barium hexaicosaoxo-hexadecaborate'
_chemical_formula_structural 'K2 Ba B16 O26'
_chemical_formula_sum 'B16 Ba1 K2 O26'
_exptl_crystal_density_diffrn 2.57
_diffrn_ambient_temperature 296.
_citation_title

;
Structural insights into borates with an anion-templated open-framework
configuration. Asymmetric K2BaB16O26 versus centrosymmetric K3CsB20O32 and
Na2M2NB18O30 (M=Rb, Cs; N=Ba, Pb)
;
loop_
_citation_id
_citation_journal_full
_citation_year
_citation_journal_volume
_citation_page_first
_citation_page_last
_citation_journal_id_ASTM
primary 'Chemistry - A European Journal' 2017 23 13910 13918 CEUJED
loop_
_citation_author_citation_id
_citation_author_name
primary 'Mutailipu, Miriding'
primary 'Zhang, Min'
primary 'Su, Xin'
primary 'Yang, Zhihua'
primary 'Chen, Yanna'
primary 'Pan, Shilie'
_cell_length_a 8.6555(17)
_cell_length_b 17.461(3)
_cell_length_c 13.779(3)
_cell_angle_alpha 90.
_cell_angle_beta 90.
_cell_angle_gamma 90.
_cell_volume 2082.47
_cell_formula_units_Z 4
_space_group_name_H-M_alt 'C 2 2 21'
_space_group_IT_number 20
loop_
_space_group_symop_id
_space_group_symop_operation_xyz
1 '-x, y, -z+1/2'
2 '-x, -y, z+1/2'
3 'x, -y, -z'
4 'x, y, z'
5 '-x+1/2, y+1/2, -z+1/2'
6 '-x+1/2, -y+1/2, z+1/2'
7 'x+1/2, -y+1/2, -z'
8 'x+1/2, y+1/2, z'
loop_
_atom_type_symbol
_atom_type_oxidation_number
Ba2+ 2
K1+ 1
B3+ 3
O2- -2
loop_
_atom_site_label
_atom_site_type_symbol
_atom_site_symmetry_multiplicity
_atom_site_Wyckoff_symbol
_atom_site_fract_x
_atom_site_fract_y
_atom_site_fract_z
_atom_site_U_iso_or_equiv
_atom_site_occupancy
Ba1 Ba2+ 4 b 0. 0.486644(15) 0.25 0.01344(7) 1
K1 K1+ 8 c 0.49590(16) 0.29922(4) -0.04551(5) 0.02113(16) 1
B1 B3+ 8 c 0.8345(5) 0.4067(2) 0.0460(3) 0.0138(9) 1
B2 B3+ 8 c -0.2576(4) 0.6540(2) 0.2602(4) 0.0133(9) 1
B3 B3+ 8 c 0.3194(5) 0.4062(2) 0.1177(3) 0.0112(8) 1
B4 B3+ 8 c 0.3820(5) 0.5409(2) 0.1564(3) 0.0133(8) 1
B5 B3+ 8 c 0.5850(5) 0.4560(2) 0.1154(3) 0.0138(9) 1
B6 B3+ 8 c 0.2890(5) 0.2768(3) 0.1890(3) 0.0150(9) 1
B7 B3+ 8 c 0.3889(5) 0.1589(3) 0.1081(3) 0.0129(9) 1
B8 B3+ 8 c 0.6011(5) 0.1108(2) 0.0005(3) 0.0140(9) 1
O1 O2- 8 c 0.4881(4) 0.39786(12) 0.10606(15) 0.0140(5) 1
O2 O2- 8 c 0.0084(5) 0.41498(13) 0.43258(15) 0.0193(5) 1
O3 O2- 8 c 0.2783(3) 0.48419(14) 0.15340(17) 0.0121(5) 1
O4 O2- 8 c 0.2514(3) 0.39201(15) 0.02160(18) 0.0133(6) 1
O5 O2- 8 c 0.7852(3) 0.36512(16) -0.02755(17) 0.0169(6) 1
O6 O2- 8 c 0.5357(3) 0.47148(14) -0.1350(2) 0.0221(7) 1
O7 O2- 8 c -0.1592(3) 0.61898(13) 0.19710(16) 0.0133(5) 1
O8 O2- 8 c 0.3733(3) 0.24164(13) 0.11831(18) 0.0190(6) 1
O9 O2- 8 c 0.2562(3) 0.44819(16) 0.39171(19) 0.0171(6) 1
O10 O2- 8 c 0.5488(3) 0.13899(16) 0.08594(18) 0.0182(7) 1
O11 O2- 8 c 0.2604(3) 0.35269(13) 0.19037(17) 0.0145(6) 1
O12 O2- 8 c 0.2180(3) 0.23181(13) 0.2588(3) 0.0210(6) 1
O13 O2- 8 c 0.3512(3) 0.61508(13) 0.17853(17) 0.0132(5) 1
loop_
_atom_site_aniso_label
_atom_site_aniso_type_symbol
_atom_site_aniso_U_11
_atom_site_aniso_U_22
_atom_site_aniso_U_33
_atom_site_aniso_U_12
_atom_site_aniso_U_13
_atom_site_aniso_U_23
Ba1 Ba2+ 0.01143(13) 0.01741(13) 0.01147(13) 0. 0.00092(18) 0.
K1 K1+ 0.0219(4) 0.0224(4) 0.0191(4) 0.0034(7) 0.0021(6) 0.0012(3)
B1 B3+ 0.010(2) 0.014(2) 0.016(2) 0.0016(18) 0.0033(19) 0.0031(17)
B2 B3+ 0.0168(18) 0.0145(17) 0.009(2) 0.0009(14) -0.001(2) -0.001(2)
B3 B3+ 0.012(2) 0.0105(19) 0.011(2) 0.0000(16) 0.0021(16) -0.0017(16)
B4 B3+ 0.013(2) 0.017(2) 0.010(2) 0.0030(17) 0.0002(17) -0.0013(16)
B5 B3+ 0.008(2) 0.021(2) 0.013(2) 0.0031(16) 0.0021(16) -0.0028(17)
B6 B3+ 0.012(2) 0.021(2) 0.012(2) -0.0013(18) -0.0042(17) -0.0018(17)
B7 B3+ 0.011(2) 0.018(2) 0.010(2) -0.0022(18) -0.0005(17) -0.0013(17)
B8 B3+ 0.016(2) 0.014(2) 0.012(2) -0.0012(18) 0.001(2) -0.0008(16)
O1 O2- 0.0103(13) 0.0133(10) 0.0184(11) 0.0019(15) -0.0020(15) -0.0025(8)
O2 O2- 0.0087(12) 0.0323(13) 0.0167(11) -0.0022(19) 0.0013(16) 0.0120(9)
O3 O2- 0.0108(12) 0.0108(11) 0.0146(12) 0.0000(11) 0.0044(10) 0.0001(11)
O4 O2- 0.0079(13) 0.0201(15) 0.0118(15) -0.0002(11) -0.0001(10) -0.0006(11)
O5 O2- 0.0107(13) 0.0261(16) 0.0138(14) -0.0016(12) 0.0018(11) -0.0065(12)
O6 O2- 0.0088(18) 0.0137(13) 0.0438(17) 0.0015(10) -0.0074(11) -0.0099(11)
O7 O2- 0.0156(13) 0.0117(13) 0.0125(13) 0.0034(11) 0.0023(11) 0.0016(10)
O8 O2- 0.0290(16) 0.0130(13) 0.0151(13) -0.0002(12) 0.0103(12) 0.0002(10)
O9 O2- 0.0118(14) 0.0216(15) 0.0178(14) 0.0001(12) 0.0010(11) 0.0078(12)
O10 O2- 0.0091(15) 0.0321(17) 0.0135(14) 0.0019(11) 0.0000(10) -0.0077(12)
O11 O2- 0.0175(14) 0.0129(13) 0.0130(13) 0.0007(11) 0.0039(11) 0.0005(10)
O12 O2- 0.0277(13) 0.0137(11) 0.0216(16) 0.0021(10) 0.0113(16) 0.0028(16)
O13 O2- 0.0139(13) 0.0120(12) 0.0137(13) -0.0014(10) 0.0036(11) -0.0023(10)
#End of TTdata_433331-ICSD