
#(C) 2020 by FIZ Karlsruhe - Leibniz Institute for Information Infrastructure.  All rights reserved.
data_433805-ICSD
_database_code_ICSD 433805
_audit_creation_date 2018-08-01
_chemical_name_common 'Cesium potassium dodecaoxodifluorooctaborate - CKBF'
_chemical_formula_structural 'Cs K B8 O12 F2'
_chemical_formula_sum 'B8 Cs1 F2 K1 O12'
_exptl_crystal_density_diffrn 2.81
_diffrn_ambient_temperature 296.
_citation_title

;
Cation-tuned synthesis of fluorooxoborates. Towards optimal deep-ultraviolet
nonlinear optical materials
;
loop_
_citation_id
_citation_journal_full
_citation_year
_citation_journal_volume
_citation_page_first
_citation_page_last
_citation_journal_id_ASTM
primary 'Angewandte Chemie, International Edition' 2018 57 2150 2154 ACIEF5
loop_
_citation_author_citation_id
_citation_author_name
primary 'Wang, Ying'
primary 'Zhang, Bingbing'
primary 'Yang, Zhihua'
primary 'Pan, Shilie'
_cell_length_a 6.598(5)
_cell_length_b 6.598(5)
_cell_length_c 7.652(11)
_cell_angle_alpha 90
_cell_angle_beta 90
_cell_angle_gamma 120
_cell_volume 288.48
_cell_formula_units_Z 1
_space_group_name_H-M_alt 'P 3 2 1'
_space_group_IT_number 150
loop_
_space_group_symop_id
_space_group_symop_operation_xyz
1 'x-y, -y, -z'
2 '-x, -x+y, -z'
3 'y, x, -z'
4 '-x+y, -x, z'
5 '-y, x-y, z'
6 'x, y, z'
loop_
_atom_type_symbol
_atom_type_oxidation_number
B3+ 3
Cs1+ 1
F1- -1
K1+ 1
O2- -2
loop_
_atom_site_label
_atom_site_type_symbol
_atom_site_symmetry_multiplicity
_atom_site_Wyckoff_symbol
_atom_site_fract_x
_atom_site_fract_y
_atom_site_fract_z
_atom_site_U_iso_or_equiv
_atom_site_occupancy
B1 B3+ 6 g 0.4033(10) -0.0977(11) 0.2959(8) 0.0153(13) 1
B2 B3+ 2 d 0.666667 0.333333 0.2373(12) 0.0178(17) 1
Cs1 Cs1+ 1 a 0. 0. 0. 0.0386(3) 1
F1 F1- 2 d 0.666667 0.333333 0.0522(8) 0.065(2) 1
K1 K1+ 1 b 0. 0. 0.5 0.0222(5) 1
O1 O2- 6 g 0.5674(7) -0.1668(6) 0.2979(5) 0.0176(9) 1
O2 O2- 6 g 0.4560(6) 0.1270(6) 0.2932(7) 0.0244(10) 1
loop_
_atom_site_aniso_label
_atom_site_aniso_type_symbol
_atom_site_aniso_U_11
_atom_site_aniso_U_22
_atom_site_aniso_U_33
_atom_site_aniso_U_12
_atom_site_aniso_U_13
_atom_site_aniso_U_23
B1 B3+ 0.007(3) 0.008(3) 0.029(3) 0.003(2) -0.002(2) -0.003(2)
B2 B3+ 0.010(2) 0.010(2) 0.034(5) 0.0049(12) 0. 0.
Cs1 Cs1+ 0.0438(4) 0.0438(4) 0.0283(4) 0.0219(2) 0. 0.
F1 F1- 0.083(3) 0.083(3) 0.029(3) 0.0417(17) 0. 0.
K1 K1+ 0.0211(8) 0.0211(8) 0.0243(12) 0.0105(4) 0. 0.
O1 O2- 0.0075(17) 0.011(2) 0.035(2) 0.0045(15) -0.0017(14) -0.0005(14)
O2 O2- 0.0093(19) 0.0079(18) 0.052(3) 0.0013(15) -0.0005(18) -0.0015(17)
#End of TTdata_433805-ICSD