
#(C) 2020 by FIZ Karlsruhe - Leibniz Institute for Information Infrastructure.  All rights reserved.
data_433804-ICSD
_database_code_ICSD 433804
_audit_creation_date 2018-08-01
_chemical_name_common 'Rubidium hexaoxofluorotetraborate - RBF'
_chemical_formula_structural 'Rb B4 O6 F'
_chemical_formula_sum 'B4 F1 O6 Rb1'
_exptl_crystal_density_diffrn 2.84
_diffrn_ambient_temperature 296.
_citation_title

;
Cation-tuned synthesis of fluorooxoborates. Towards optimal deep-ultraviolet
nonlinear optical materials
;
loop_
_citation_id
_citation_journal_full
_citation_year
_citation_journal_volume
_citation_page_first
_citation_page_last
_citation_journal_id_ASTM
primary 'Angewandte Chemie, International Edition' 2018 57 2150 2154 ACIEF5
loop_
_citation_author_citation_id
_citation_author_name
primary 'Wang, Ying'
primary 'Zhang, Bingbing'
primary 'Yang, Zhihua'
primary 'Pan, Shilie'
_cell_length_a 7.6742(14)
_cell_length_b 11.228(2)
_cell_length_c 6.6218(12)
_cell_angle_alpha 90
_cell_angle_beta 90
_cell_angle_gamma 90
_cell_volume 570.57
_cell_formula_units_Z 4
_space_group_name_H-M_alt 'P n a 21'
_space_group_IT_number 33
loop_
_space_group_symop_id
_space_group_symop_operation_xyz
1 'x+1/2, -y+1/2, z'
2 '-x+1/2, y+1/2, z+1/2'
3 '-x, -y, z+1/2'
4 'x, y, z'
loop_
_atom_type_symbol
_atom_type_oxidation_number
Rb1+ 1
B3+ 3
F1- -1
O2- -2
loop_
_atom_site_label
_atom_site_type_symbol
_atom_site_symmetry_multiplicity
_atom_site_Wyckoff_symbol
_atom_site_fract_x
_atom_site_fract_y
_atom_site_fract_z
_atom_site_U_iso_or_equiv
_atom_site_occupancy
Rb1 Rb1+ 4 a 0.51298(6) 0.26304(3) 1.0463(2) 0.02646(15) 1
B1 B3+ 4 a 0.2101(6) 0.5805(4) 0.0566(10) 0.0140(9) 1
B2 B3+ 4 a 0.1973(7) 0.5014(5) 0.4059(8) 0.0155(11) 1
B3 B3+ 4 a 0.2434(6) 0.3003(5) 0.5213(13) 0.0228(15) 1
B4 B3+ 4 a 0.2853(7) 0.4643(4) 0.7564(8) 0.0173(11) 1
F1 F1- 4 a 0.4664(4) 0.4919(5) 0.7752(6) 0.0316(8) 1
O1 O2- 4 a 0.2038(5) 0.4794(3) -0.0493(5) 0.0186(7) 1
O2 O2- 4 a 0.1725(4) 0.5849(2) 0.2588(5) 0.0166(7) 1
O3 O2- 4 a 0.2029(5) 0.3800(3) 0.3615(5) 0.0185(8) 1
O4 O2- 4 a 0.2154(5) 0.5403(3) 0.5971(5) 0.0171(8) 1
O5 O2- 4 a 0.2522(5) 0.1864(3) 0.4564(6) 0.0289(10) 1
O6 O2- 4 a 0.2721(5) 0.3372(3) 0.7044(5) 0.0217(8) 1
loop_
_atom_site_aniso_label
_atom_site_aniso_type_symbol
_atom_site_aniso_U_11
_atom_site_aniso_U_22
_atom_site_aniso_U_33
_atom_site_aniso_U_12
_atom_site_aniso_U_13
_atom_site_aniso_U_23
Rb1 Rb1+ 0.0288(3) 0.0225(2) 0.0281(2) -0.00264(18) -0.0069(4) 0.0025(5)
B1 B3+ 0.023(2) 0.011(2) 0.008(2) 0.0003(16) 0.001(3) 0.000(2)
B2 B3+ 0.019(3) 0.015(3) 0.013(3) -0.004(2) -0.001(2) 0.0035(19)
B3 B3+ 0.030(3) 0.012(2) 0.026(4) 0.0020(17) 0.002(3) 0.005(3)
B4 B3+ 0.026(3) 0.016(2) 0.010(3) 0.001(2) -0.004(2) 0.0003(19)
F1 F1- 0.026(2) 0.0390(19) 0.0301(17) 0.0016(19) -0.0015(16) 0.0003(14)
O1 O2- 0.032(2) 0.0127(16) 0.0115(17) -0.0009(14) 0.0028(15) -0.0015(13)
O2 O2- 0.029(2) 0.0094(15) 0.0112(15) 0.0024(13) 0.0016(14) -0.0006(12)
O3 O2- 0.037(2) 0.0072(15) 0.0111(16) 0.0024(13) -0.0057(15) 0.0007(13)
O4 O2- 0.030(2) 0.0119(15) 0.0090(18) 0.0023(14) 0.0006(13) -0.0018(11)
O5 O2- 0.064(3) 0.0090(17) 0.0134(17) 0.0046(15) -0.0062(15) -0.0025(14)
O6 O2- 0.046(3) 0.0068(15) 0.0127(18) 0.0067(15) -0.0040(16) -0.0026(14)
#End of TTdata_433804-ICSD