
#(C) 2020 by FIZ Karlsruhe - Leibniz Institute for Information Infrastructure.  All rights reserved.
data_44261-ICSD
_database_code_ICSD 44261
_audit_creation_date 2000-07-15
_audit_update_record 2006-04-01
_chemical_name_common 'Zinc germanim phosphide'
_chemical_formula_structural 'Zn Ge P2'
_chemical_formula_sum 'Ge1 P2 Zn1'
_chemical_name_structure_type Chalcopyrite#CuFeS2
_exptl_crystal_density_diffrn 4.13
_citation_title

;
Structural and electronic properties of narrow-gap A B C2 chalcopyrite
semiconductors
;
loop_
_citation_id
_citation_journal_full
_citation_year
_citation_journal_volume
_citation_page_first
_citation_page_last
_citation_journal_id_ASTM
primary 'Physical Review B: Condensed Matter and Materials Physics' 1992 46
10070 10077 PRBMDO
loop_
_citation_author_citation_id
_citation_author_name
primary 'Continenza, A.'
primary 'Massidda, S.'
primary 'Freeman, A.J.'
primary 'de Pascale, T.M.'
primary 'Meloni, F.'
primary 'Serra, M.'
_cell_length_a 5.465
_cell_length_b 5.465
_cell_length_c 10.766
_cell_angle_alpha 90.
_cell_angle_beta 90.
_cell_angle_gamma 90.
_cell_volume 321.54
_cell_formula_units_Z 4
_space_group_name_H-M_alt 'I -4 2 d'
_space_group_IT_number 122
loop_
_space_group_symop_id
_space_group_symop_operation_xyz
1 '-y, -x+1/2, z+1/4'
2 'y, -x, -z'
3 'y, x+1/2, z+1/4'
4 '-y, x, -z'
5 'x, -y+1/2, -z+1/4'
6 '-x, -y, z'
7 '-x, y+1/2, -z+1/4'
8 'x, y, z'
9 '-y+1/2, -x, z+3/4'
10 'y+1/2, -x+1/2, -z+1/2'
11 'y+1/2, x, z+3/4'
12 '-y+1/2, x+1/2, -z+1/2'
13 'x+1/2, -y, -z+3/4'
14 '-x+1/2, -y+1/2, z+1/2'
15 '-x+1/2, y, -z+3/4'
16 'x+1/2, y+1/2, z+1/2'
loop_
_atom_type_symbol
_atom_type_oxidation_number
Zn2+ 2
Ge4+ 4
P3- -3
loop_
_atom_site_label
_atom_site_type_symbol
_atom_site_symmetry_multiplicity
_atom_site_Wyckoff_symbol
_atom_site_fract_x
_atom_site_fract_y
_atom_site_fract_z
_atom_site_B_iso_or_equiv
_atom_site_occupancy
Zn1 Zn2+ 4 a 0 0 0 . 1.
Ge1 Ge4+ 4 b 0 0 0.5 . 1.
P1 P3- 8 d 0.258 0.25 0.125 . 1.
#End of TTdata_44261-ICSD