
#(C) 2020 by FIZ Karlsruhe - Leibniz Institute for Information Infrastructure.  All rights reserved.
data_44799-ICSD
_database_code_ICSD 44799
_audit_creation_date 2000-12-16
_audit_update_record 2003-04-01
_chemical_name_common 'Cesium dihydrogen arsenate(V)'
_chemical_formula_structural 'Cs H2 (As O4)'
_chemical_formula_sum 'H2 As1 Cs1 O4'
_chemical_name_structure_type KH2PO4
_exptl_crystal_density_diffrn 3.63
_citation_title 'The orthoarsenates of cesium'
loop_
_citation_id
_citation_journal_full
_citation_year
_citation_journal_volume
_citation_page_first
_citation_page_last
_citation_journal_id_ASTM
primary 'Gazzetta Chimica Italiana' 1956 86 1174 1180 GCITA9
loop_
_citation_author_citation_id
_citation_author_name
primary 'Ferrari, A.'
primary 'Nardelli, M.'
primary 'Cingli, M.'
_cell_length_a 7.98(1)
_cell_length_b 7.98
_cell_length_c 7.87(2)
_cell_angle_alpha 90.
_cell_angle_beta 90.
_cell_angle_gamma 90.
_cell_volume 501.16
_cell_formula_units_Z 4
_space_group_name_H-M_alt 'I -4 2 d'
_space_group_IT_number 122
loop_
_space_group_symop_id
_space_group_symop_operation_xyz
1 '-y, -x+1/2, z+1/4'
2 'y, -x, -z'
3 'y, x+1/2, z+1/4'
4 '-y, x, -z'
5 'x, -y+1/2, -z+1/4'
6 '-x, -y, z'
7 '-x, y+1/2, -z+1/4'
8 'x, y, z'
9 '-y+1/2, -x, z+3/4'
10 'y+1/2, -x+1/2, -z+1/2'
11 'y+1/2, x, z+3/4'
12 '-y+1/2, x+1/2, -z+1/2'
13 'x+1/2, -y, -z+3/4'
14 '-x+1/2, -y+1/2, z+1/2'
15 '-x+1/2, y, -z+3/4'
16 'x+1/2, y+1/2, z+1/2'
loop_
_atom_type_symbol
_atom_type_oxidation_number
Cs1+ 1
As5+ 5
O2- -2
H1+ 1
loop_
_atom_site_label
_atom_site_type_symbol
_atom_site_symmetry_multiplicity
_atom_site_Wyckoff_symbol
_atom_site_fract_x
_atom_site_fract_y
_atom_site_fract_z
_atom_site_B_iso_or_equiv
_atom_site_occupancy
Cs1 Cs1+ 4 b 0 0 0.5 . 1.
As1 As5+ 4 a 0 0 0 . 1.
O1 O2- 16 e 0.138 0.092 0.144 . 1.
#End of TTdata_44799-ICSD