
#(C) 2020 by FIZ Karlsruhe - Leibniz Institute for Information Infrastructure.  All rights reserved.
data_4481-ICSD
_database_code_ICSD 4481
_audit_creation_date 2019-02-01
_chemical_name_common 'Tripotassium octaoxo-dihydroxo-pentaborate'
_chemical_formula_structural 'K3 B5 O8 (O H)2'
_chemical_formula_sum 'H2 B5 K3 O10'
_exptl_crystal_density_diffrn 2.19
_diffrn_ambient_temperature 100.
_citation_title

;
Why some noncentrosymmetric borates do not make good nonlinear optical
materials. A case study with K3B5O8(OH)2
;
loop_
_citation_id
_citation_journal_full
_citation_year
_citation_journal_volume
_citation_page_first
_citation_page_last
_citation_journal_id_ASTM
primary 'Inorganic Chemistry' 2018 57 11801 11808 INOCAJ
loop_
_citation_author_citation_id
_citation_author_name
primary 'Ding, Fenghua'
primary 'Nisbet, Matthew L.'
primary 'Zhang, Weiguo'
primary 'Halasyamani, P. Shiv'
primary 'Chai, Liyuan'
primary 'Poeppelmeier, Kenneth R.'
_cell_length_a 13.7364(9)
_cell_length_b 19.3176(12)
_cell_length_c 7.6065(5)
_cell_angle_alpha 90
_cell_angle_beta 90
_cell_angle_gamma 90
_cell_volume 2018.41
_cell_formula_units_Z 8
_space_group_name_H-M_alt 'F d d 2'
_space_group_IT_number 43
loop_
_space_group_symop_id
_space_group_symop_operation_xyz
1 'x+1/4, -y+1/4, z+1/4'
2 '-x+1/4, y+1/4, z+1/4'
3 '-x, -y, z'
4 'x, y, z'
5 'x+1/4, -y+3/4, z+3/4'
6 '-x+1/4, y+3/4, z+3/4'
7 '-x, -y+1/2, z+1/2'
8 'x, y+1/2, z+1/2'
9 'x+3/4, -y+1/4, z+3/4'
10 '-x+3/4, y+1/4, z+3/4'
11 '-x+1/2, -y, z+1/2'
12 'x+1/2, y, z+1/2'
13 'x+3/4, -y+3/4, z+1/4'
14 '-x+3/4, y+3/4, z+1/4'
15 '-x+1/2, -y+1/2, z'
16 'x+1/2, y+1/2, z'
loop_
_atom_type_symbol
_atom_type_oxidation_number
K1+ 1
O2- -2
B3+ 3
H1+ 1
loop_
_atom_site_label
_atom_site_type_symbol
_atom_site_symmetry_multiplicity
_atom_site_Wyckoff_symbol
_atom_site_fract_x
_atom_site_fract_y
_atom_site_fract_z
_atom_site_U_iso_or_equiv
_atom_site_occupancy
K1 K1+ 16 b 0.764165(16) 0.469998(11) 0.45649(3) 0.01012(6) 1.
K2 K1+ 8 a 0.5 0.5 0.73251(4) 0.01245(8) 1.
O1 O2- 16 b 0.62431(6) 0.60954(4) 0.73396(11) 0.01019(14) 1.
O2 O2- 16 b 0.68036(6) 0.71281(4) 0.59397(11) 0.00942(15) 1.
O3 O2- 16 b 0.74515(6) 0.60227(4) 0.51743(11) 0.01311(17) 1.
O4 O2- 16 b 0.84015(6) 0.58675(4) 0.26592(10) 0.01099(15) 1.
O5 O2- 16 b 0.80355(6) 0.70165(4) 0.36313(10) 0.00907(15) 1.
B1 B3+ 16 b 0.68164(9) 0.64243(5) 0.61802(15) 0.0083(2) 1.
B2 B3+ 16 b 0.79741(9) 0.63153(6) 0.38011(15) 0.0091(2) 1.
B3 B3+ 8 a 0.75 0.75 0.4797(2) 0.0074(3) 1.
H1 H1+ 16 b 0.8490(19) 0.6084(10) 0.134(4) 0.056(7) 1.
loop_
_atom_site_aniso_label
_atom_site_aniso_type_symbol
_atom_site_aniso_U_11
_atom_site_aniso_U_22
_atom_site_aniso_U_33
_atom_site_aniso_U_12
_atom_site_aniso_U_13
_atom_site_aniso_U_23
K1 K1+ 0.00911(10) 0.00747(9) 0.01380(11) -0.00001(6) 0.00074(9) 0.00020(7)
K2 K1+ 0.00841(14) 0.00817(13) 0.0208(2) -0.00040(9) -0. 0.
O1 O2- 0.0122(3) 0.0095(3) 0.0089(4) -0.0014(2) 0.0033(3) 0.0003(2)
O2 O2- 0.0105(4) 0.0065(3) 0.0113(3) -0.0001(3) 0.0037(3) -0.0002(3)
O3 O2- 0.0182(4) 0.0070(3) 0.0142(4) 0.0021(3) 0.0090(3) 0.0017(3)
O4 O2- 0.0147(4) 0.0079(3) 0.0103(3) 0.0021(3) 0.0040(3) 0.0003(3)
O5 O2- 0.0104(4) 0.0066(3) 0.0102(4) -0.0002(2) 0.0031(3) -0.0004(2)
B1 B3+ 0.0089(5) 0.0088(5) 0.0073(5) -0.0006(3) 0.0006(4) -0.0010(4)
B2 B3+ 0.0092(5) 0.0089(5) 0.0091(5) 0.0010(4) 0.0017(4) 0.0004(4)
B3 B3+ 0.0084(7) 0.0053(6) 0.0085(8) -0.0011(5) -0. 0.
#End of TTdata_4481-ICSD