
#(C) 2020 by FIZ Karlsruhe - Leibniz Institute for Information Infrastructure.  All rights reserved.
data_4493-ICSD
_database_code_ICSD 4493
_audit_creation_date 2019-02-01
_chemical_name_common
'Trilead(II) hydroxide hexadecaoxo-nonaborate trihydroxoborate'
_chemical_formula_structural 'Pb3 (O H) (B9 O16) (B (O H)3)'
_chemical_formula_sum 'H4 B10 O20 Pb3'
_chemical_name_structure_type Pb3OHB9O16B(OH)3
_exptl_crystal_density_diffrn 4.66
_citation_title
'Experimental and ab initio studies of two UV nonlinear optical materials'
loop_
_citation_id
_citation_journal_full
_citation_year
_citation_journal_volume
_citation_page_first
_citation_page_last
_citation_journal_id_ASTM
primary 'RSC Advances' 2017 7 20259 20265 RSCACL
loop_
_citation_author_citation_id
_citation_author_name
primary 'Lu, Juanjuan'
primary 'Shi, Guoqiang'
primary 'Wu, Hongping'
primary 'Wen, Ming'
primary 'Hou, Dianwei'
primary 'Yang, Zhihua'
primary 'Zhang, Fangfang'
primary 'Pan, Shilie'
_cell_length_a 10.0809(5)
_cell_length_b 10.0809(5)
_cell_length_c 8.5332(10)
_cell_angle_alpha 90.
_cell_angle_beta 90.
_cell_angle_gamma 120.
_cell_volume 751.
_cell_formula_units_Z 2
_space_group_name_H-M_alt 'P 3 1 c'
_space_group_IT_number 159
loop_
_space_group_symop_id
_space_group_symop_operation_xyz
1 '-x, -x+y, z+1/2'
2 'x-y, -y, z+1/2'
3 'y, x, z+1/2'
4 '-x+y, -x, z'
5 '-y, x-y, z'
6 'x, y, z'
loop_
_atom_type_symbol
_atom_type_oxidation_number
Pb2+ 2
B3+ 3
O2- -2
H1+ 1
loop_
_atom_site_label
_atom_site_type_symbol
_atom_site_symmetry_multiplicity
_atom_site_Wyckoff_symbol
_atom_site_fract_x
_atom_site_fract_y
_atom_site_fract_z
_atom_site_U_iso_or_equiv
_atom_site_occupancy
Pb1 Pb2+ 6 c 0.8652(0) 0.2729(0) 0.7854(1) 0.01598(11) 1.
B1 B3+ 6 c 0.5772(10) -0.0287(10) 0.6004(10) 0.0075(17) 1.
B2 B3+ 6 c 0.4966(10) -0.2964(10) 0.6354(10) 0.0073(17) 1.
B3 B3+ 6 c 0.5696(10) -0.1297(10) 0.8676(11) 0.0087(17) 1.
B4 B3+ 2 a 1. 1. 0.606(3) 0.026(4) 1.
O1 O2- 6 c 0.5317(6) -0.2712(6) 0.8044(7) 0.0064(11) 1.
O2 O2- 6 c 0.5964(6) -0.1570(6) 0.5484(6) 0.0070(11) 1.
O3 O2- 2 b 0.3333 -0.3333 0.6113(10) 0.0063(18) 1.
O4 O2- 6 c 0.6103(6) -0.0050(6) 0.7708(7) 0.0115(12) 1.
O5 O2- 6 c 0.6859(6) 0.1139(6) 0.5257(7) 0.0090(12) 1.
O6 O2- 6 c 0.5177(6) -0.4182(6) 0.5745(7) 0.0084(11) 1.
O7 O2- 2 b 0.6667 0.3333 0.7424(12) 0.015(2) 1.
O8 O2- 6 c 0.8641(8) 0.8666(8) 0.6078(10) 0.037(2) 1.
H1 H1+ 2 b 0.6667 0.3333 0.634(3) 0.044 1.
H2 H1+ 6 c 0.782(9) 0.881(14) 0.597(13) 0.044 1.
loop_
_atom_site_aniso_label
_atom_site_aniso_type_symbol
_atom_site_aniso_U_11
_atom_site_aniso_U_22
_atom_site_aniso_U_33
_atom_site_aniso_U_12
_atom_site_aniso_U_13
_atom_site_aniso_U_23
Pb1 Pb2+ 0.01405(19) 0.01750(19) 0.01814(15) 0.00920(16) 0.00403(13) 0.00323(14)
B2 B3+ 0.007(4) 0.004(4) 0.012(4) 0.003(3) -0.005(3) -0.002(3)
B4 B3+ 0.011(5) 0.011(5) 0.055(14) 0.006(3) 0. 0.
O1 O2- 0.012(3) 0.002(3) 0.005(3) 0.003(2) 0.002(2) 0.0018(19)
O2 O2- 0.006(3) 0.005(3) 0.009(3) 0.001(2) 0.002(2) 0.001(2)
O3 O2- 0.005(3) 0.005(3) 0.008(5) 0.0026(13) 0. 0.
O4 O2- 0.012(3) 0.009(3) 0.011(3) 0.004(3) 0.000(2) -0.003(2)
O5 O2- 0.006(3) 0.008(3) 0.011(3) 0.002(2) -0.002(2) -0.004(2)
O6 O2- 0.004(3) 0.003(3) 0.017(3) 0.001(2) 0.001(2) 0.000(2)
O7 O2- 0.010(3) 0.010(3) 0.023(6) 0.0051(15) 0. 0.
O8 O2- 0.015(4) 0.018(4) 0.076(6) 0.007(3) -0.002(3) 0.001(3)
#End of TTdata_4493-ICSD