
#(C) 2020 by FIZ Karlsruhe - Leibniz Institute for Information Infrastructure.  All rights reserved.
data_49685-ICSD
_database_code_ICSD 49685
_audit_creation_date 1985-05-02
_audit_update_record 2002-04-01
_chemical_name_common 'Dibismuth germanium oxide'
_chemical_formula_structural 'Bi2 Ge O5'
_chemical_formula_sum 'Bi2 Ge1 O5'
_chemical_name_structure_type Bi2O2SiO3
_exptl_crystal_density_diffrn 8.17
_citation_title 'The crystal structure of Bi2 Ge O5'
loop_
_citation_id
_citation_journal_full
_citation_year
_citation_journal_volume
_citation_page_first
_citation_page_last
_citation_journal_id_ASTM
primary 'Acta Chemica Scandinavica ' 1964 18 1555 1557 ACSAA4
loop_
_citation_author_citation_id
_citation_author_name
primary 'Aurivillius, B.'
primary 'Lindblom, C.I.'
primary 'Stenson, P.'
_cell_length_a 15.69(7)
_cell_length_b 5.492(8)
_cell_length_c 5.383(6)
_cell_angle_alpha 90.
_cell_angle_beta 90.
_cell_angle_gamma 90.
_cell_volume 463.85
_cell_formula_units_Z 4
_space_group_name_H-M_alt 'C m c 21'
_space_group_IT_number 36
loop_
_space_group_symop_id
_space_group_symop_operation_xyz
1 'x, -y, z+1/2'
2 '-x, -y, z+1/2'
3 '-x, y, z'
4 'x, y, z'
5 'x+1/2, -y+1/2, z+1/2'
6 '-x+1/2, -y+1/2, z+1/2'
7 '-x+1/2, y+1/2, z'
8 'x+1/2, y+1/2, z'
loop_
_atom_type_symbol
_atom_type_oxidation_number
Bi3+ 3
Ge4+ 4
O2- -2
loop_
_atom_site_label
_atom_site_type_symbol
_atom_site_symmetry_multiplicity
_atom_site_Wyckoff_symbol
_atom_site_fract_x
_atom_site_fract_y
_atom_site_fract_z
_atom_site_B_iso_or_equiv
_atom_site_occupancy
Bi1 Bi3+ 8 b 0.16758(13) 0.21738(43) 0.25 1.192(42) 1.
Ge1 Ge4+ 4 a 0 0.6857(21) 0.2000(22) 1.08(19) 1.
O1 O2- 4 a 0 0.580(16) 0.491(20) 1.980(19) 1.
O2 O2- 8 b 0.0949(26) 0.1368(85) 0.648(11) 0.35(64) 1.
O3 O2- 8 b 0.2541(21) 0.4777(79) 0.462(10) 0.44(70) 1.
#End of TTdata_49685-ICSD