
#(C) 2020 by FIZ Karlsruhe - Leibniz Institute for Information Infrastructure.  All rights reserved.
data_50039-ICSD
_database_code_ICSD 50039
_audit_creation_date 1999-01-19
_audit_update_record 2013-08-01
_chemical_name_common 'Dipotassium digallium oxide bis(borate)'
_chemical_formula_structural 'K2 Ga2 O (B O3)2'
_chemical_formula_sum 'B2 Ga2 K2 O7'
_chemical_name_structure_type K2Ga2O(BO3)2
_exptl_crystal_density_diffrn 3.17
_diffrn_ambient_temperature 297.
_citation_title

;
Structure and properties of the noncentrosymmetric oxide borate K2 Ga2 O (B
O3)2
;
loop_
_citation_id
_citation_journal_full
_citation_year
_citation_journal_volume
_citation_page_first
_citation_page_last
_citation_journal_id_ASTM
primary 'Materials Research Bulletin' 1997 32 649 656 MRBUAC
loop_
_citation_author_citation_id
_citation_author_name
primary 'Smith, R.W.'
primary 'Kennard, M.A.'
primary 'Dudik, M.J.'
_cell_length_a 8.5656(5)
_cell_length_b 8.5656(5)
_cell_length_c 8.6850(8)
_cell_angle_alpha 90.
_cell_angle_beta 90.
_cell_angle_gamma 120.
_cell_volume 551.84
_cell_formula_units_Z 3
_space_group_name_H-M_alt 'P 3 2 1'
_space_group_IT_number 150
loop_
_space_group_symop_id
_space_group_symop_operation_xyz
1 'x-y, -y, -z'
2 '-x, -x+y, -z'
3 'y, x, -z'
4 '-x+y, -x, z'
5 '-y, x-y, z'
6 'x, y, z'
loop_
_atom_type_symbol
_atom_type_oxidation_number
K1+ 1
Ga3+ 3
B3+ 3
O2- -2
loop_
_atom_site_label
_atom_site_type_symbol
_atom_site_symmetry_multiplicity
_atom_site_Wyckoff_symbol
_atom_site_fract_x
_atom_site_fract_y
_atom_site_fract_z
_atom_site_B_iso_or_equiv
_atom_site_occupancy
K1 K1+ 3 e 0.6873(4) 0 0 . 1.
K2 K1+ 3 f 0.6419(3) 0 0.5 . 1.
Ga1 Ga3+ 2 c 0 0 0.2972(2) . 1.
Ga2 Ga3+ 2 d 0.3333 0.6667 0.2255(2) . 1.
Ga3 Ga3+ 2 d 0.6667 0.3333 0.1827(2) . 1.
B1 B3+ 6 g 0.335(1) 0.001(1) 0.257(1) . 1.
O1 O2- 1 b 0 0 0.5 . 1.
O2 O2- 2 d 0.3333 0.6667 0.021(1) . 1.
O3 O2- 6 g 0.2269(8) 0.0706(7) 0.2242(8) . 1.
O4 O2- 6 g 0.1783(7) 0.4394(7) 0.2981(8) . 1.
O5 O2- 6 g 0.5181(7) 0.1043(8) 0.2515(9) . 1.
loop_
_atom_site_aniso_label
_atom_site_aniso_type_symbol
_atom_site_aniso_U_11
_atom_site_aniso_U_22
_atom_site_aniso_U_33
_atom_site_aniso_U_12
_atom_site_aniso_U_13
_atom_site_aniso_U_23
K1 K1+ 0.023(1) 0.026(1) 0.022(1) 0.013 -.0062(5) -.0124
K2 K1+ 0.0228(9) 0.028(1) 0.017(1) 0.014 -.0016(5) -.0032
Ga1 Ga3+ 0.0105(4) 0.0105(4) 0.0144(6) 0.0053 0 0
Ga2 Ga3+ 0.0133(4) 0.0133(4) 0.0106(6) 0.0066 0 0
Ga3 Ga3+ 0.0111(4) 0.0111(4) 0.0106(5) 0.0055 0 0
B1 B3+ 0.016(4) 0.014(3) 0.014(4) 0.010(3) 0.000(3) 0.000(2)
O1 O2- 0.055(8) 0.055(8) 0.022(8) 0.027 0 0
O2 O2- 0.065(7) 0.065(78) 0.004(4) 0.032 0 0
O3 O2- 0.013(3) 0.017(3) 0.040(4) 0.009(2) 0.007(3) 0.014(2)
O4 O2- 0.012(2) 0.010(2) 0.036(3) 0.003(2) -.007(2) 0.002(2)
O5 O2- 0.009(2) 0.012(3) 0.052(4) 0.004(2) 0.001(2) 0.007(3)
#End of TTdata_50039-ICSD