####################################################################### 
# 
# This file contains crystal structure data downloaded from the 
# Cambridge Structural Database (CSD) hosted by the Cambridge 
# Crystallographic Data Centre (CCDC) in cooperation with FIZ Karlsruhe.
# 
# Please note that these data are only for research purposes or private use.
# For detailed information please see under Terms & Conditions.
# Full information about CCDC and FIZ Karlsruhe data access policies and 
# citation guidelines are available at http://www.ccdc.cam.ac.uk/access/V1
# 
# Audit and citation data items may have been added by FIZ Karlsruhe. 
# Please retain this information to preserve the provenance of 
# this file and to allow appropriate attribution of the data. 
# 
#######################################################################

data_50227-ICSD
_database_code_depnum_ccdc_archive 'CCDC 1615160'
loop_
_citation_id
_citation_doi
_citation_year
1 10.1002/zaac.199762301112 1997
_audit_update_record             
;
2018-02-26 deposited with the CCDC.	2022-10-29 downloaded from the CCDC.
;
_database_code_ICSD              50227
_chemical_name_systematic        'Barium Magnesium Fluoride'
_chemical_formula_sum            'Ba1 F4 Mg1'
_cell_length_a                   4.126
_cell_length_b                   14.518
_cell_length_c                   5.821
_cell_angle_alpha                90
_cell_angle_beta                 90
_cell_angle_gamma                90
_cell_volume                     348.69
_cell_formula_units_Z            4
_symmetry_space_group_name_H-M   'C m c 21'
_symmetry_Int_Tables_number      36
_symmetry_cell_setting           orthorhombic
_refine_ls_R_factor_all          0.0148
loop_
_symmetry_equiv_pos_site_id
_symmetry_equiv_pos_as_xyz
1 'x, -y, z+1/2'
2 '-x, -y, z+1/2'
3 '-x, y, z'
4 'x, y, z'
5 'x+1/2, -y+1/2, z+1/2'
6 '-x+1/2, -y+1/2, z+1/2'
7 '-x+1/2, y+1/2, z'
8 'x+1/2, y+1/2, z'
loop_
_atom_site_label
_atom_site_type_symbol
_atom_site_fract_x
_atom_site_fract_y
_atom_site_fract_z
Ba1 Ba2+ 0 0.35166 0.34622
Mg1 Mg2+ 0 0.08522 0.3111
F1 F1- 0 0.02437 0
F2 F1- 0 0.1666 0.577
F3 F1- 0 0.19618 0.1134
F4 F1- 0 0.57856 0.3028

#End of data_50227-ICSD


