
#(C) 2020 by FIZ Karlsruhe - Leibniz Institute for Information Infrastructure.  All rights reserved.
data_50875-ICSD
_database_code_ICSD 50875
_audit_creation_date 2000-12-16
_audit_update_record 2010-08-01
_chemical_name_common 'Barium borophosphate(V)'
_chemical_formula_structural 'Ba (B P O5)'
_chemical_formula_sum 'B1 Ba1 O5 P1'
_chemical_name_structure_type BaBPO5
_exptl_crystal_density_diffrn 4.22
_citation_title

;
Crystal structure and thermal decomposition studies of barium borophosphate,
Ba B P O5
;
loop_
_citation_id
_citation_journal_full
_citation_year
_citation_journal_volume
_citation_page_first
_citation_page_last
_citation_journal_id_ASTM
primary 'Journal of Solid State Chemistry' 1998 135 43 51 JSSCBI
loop_
_citation_author_citation_id
_citation_author_name
primary 'Shi, Y.'
primary 'Liang, J.'
primary 'Zhang, H.'
primary 'Liu, Q.'
primary 'Chen, X.'
primary 'Yang, J.'
primary 'Zhuang, W.'
primary 'Rao, G.'
_cell_length_a 7.1094(1)
_cell_length_b 7.1094(1)
_cell_length_c 6.9895(1)
_cell_angle_alpha 90.
_cell_angle_beta 90.
_cell_angle_gamma 120.
_cell_volume 305.94
_cell_formula_units_Z 3
_space_group_name_H-M_alt 'P 31 2 1'
_space_group_IT_number 152
loop_
_space_group_symop_id
_space_group_symop_operation_xyz
1 'x-y, -y, -z+2/3'
2 '-x, -x+y, -z+1/3'
3 'y, x, -z'
4 '-x+y, -x, z+2/3'
5 '-y, x-y, z+1/3'
6 'x, y, z'
loop_
_atom_type_symbol
_atom_type_oxidation_number
Ba2+ 2
P5+ 5
B3+ 3
O2- -2
loop_
_atom_site_label
_atom_site_type_symbol
_atom_site_symmetry_multiplicity
_atom_site_Wyckoff_symbol
_atom_site_fract_x
_atom_site_fract_y
_atom_site_fract_z
_atom_site_B_iso_or_equiv
_atom_site_occupancy
Ba1 Ba2+ 3 a 0.3949(32) 0 0.3333 0.31(4) 1.
P1 P5+ 3 b 0.3922(32) 0 0.8333 1.40(5) 1.
B1 B3+ 3 a -.0816(32) 0 0.3333 0.51(5) 1.
O1 O2- 6 c 0.3274(32) 0.1414(32) -.0392(32) 1.04(6) 1.
O2 O2- 6 c 0.4279(32) 0.8606(32) -.0323(32) 1.28(7) 1.
O3 O2- 3 b -.0355(32) 0 0.8333 1.11(2) 1.
#End of TTdata_50875-ICSD