
#(C) 2020 by FIZ Karlsruhe - Leibniz Institute for Information Infrastructure.  All rights reserved.
data_51912-ICSD
_database_code_ICSD 51912
_audit_creation_date 2004-10-01
_chemical_name_common 'Strontium gallium borate - beta'
_chemical_formula_structural 'Sr Ga (B O4)'
_chemical_formula_sum 'B1 Ga1 O4 Sr1'
_exptl_crystal_density_diffrn 3.77
_citation_title

;
Ab initio determination of a new compound. beta-Sr Ga B O4, from powder x-ray
diffraction data
;
loop_
_citation_id
_citation_journal_full
_citation_year
_citation_journal_volume
_citation_page_first
_citation_page_last
_citation_journal_id_ASTM
primary 'Journal of Solid State Chemistry' 2002 165 119 124 JSSCBI
loop_
_citation_author_citation_id
_citation_author_name
primary 'Yang, Z.'
primary 'Liang, J.-K.'
primary 'Chen, X.-L.'
primary 'Chen, J.-R.'
_cell_length_a 15.3707(2)
_cell_length_b 8.9921(1)
_cell_length_c 5.9191(1)
_cell_angle_alpha 90
_cell_angle_beta 90
_cell_angle_gamma 90
_cell_volume 818.11
_cell_formula_units_Z 8
_space_group_name_H-M_alt 'P 21 21 2'
_space_group_IT_number 18
loop_
_space_group_symop_id
_space_group_symop_operation_xyz
1 '-x+1/2, y+1/2, -z'
2 'x+1/2, -y+1/2, -z'
3 '-x, -y, z'
4 'x, y, z'
loop_
_atom_type_symbol
_atom_type_oxidation_number
Sr2+ 2
Ga3+ 3
O2- -2
B3+ 3
loop_
_atom_site_label
_atom_site_type_symbol
_atom_site_symmetry_multiplicity
_atom_site_Wyckoff_symbol
_atom_site_fract_x
_atom_site_fract_y
_atom_site_fract_z
_atom_site_B_iso_or_equiv
_atom_site_occupancy
Sr1 Sr2+ 4 c 0.1218(1) -.0716(2) 0.5001(21) 1. 1.
Sr2 Sr2+ 4 c 0.5220(1) 0.2863(2) 0.0076(17) 1. 1.
Ga1 Ga3+ 4 c 0.3498(3) 0.0341(6) 0.7571(18) 1. 1.
Ga2 Ga3+ 4 c 0.3412(3) 0.0428(6) 0.2499(19) 1. 1.
O1 O2- 4 c 0.0981(6) -.0364(11) -.003(11) 1. 1.
O2 O2- 4 c 0.4015(14) -.1264(22) 0.272(6) 1. 1.
O3 O2- 4 c 0.3671 0.1505 0.5041 1. 1.
O4 O2- 4 c 0.5941(14) 0.1461(22) 0.683(6) 1. 1.
O5 O2- 4 c 0.2323(12) -.0386(19) 0.198(5) 1. 1.
O6 O2- 4 c 0.2278(13) -.0007(20) 0.795(5) 1. 1.
O7 O2- 4 c 0.395 0.13 0.008 1. 1.
O8 O2- 4 c 0.0306(6) 0.1794(12) 0.478(7) 1. 1.
B1 B3+ 4 c 0.185 -.0317 0.005 1. 1.
B2 B3+ 4 c 0.085 0.295 0.53 1. 1.
#End of TTdata_51912-ICSD