
#(C) 2020 by FIZ Karlsruhe - Leibniz Institute for Information Infrastructure.  All rights reserved.
data_5244-ICSD
_database_code_ICSD 5244
_audit_creation_date 2015-08-01
_chemical_name_common 'Dicalcium diborate silicate'
_chemical_formula_structural 'Ca2 Si B2 O7'
_chemical_formula_sum 'B2 Ca2 O7 Si1'
_chemical_name_structure_type Melilite#Ca2MgSi2O7
_chemical_name_mineral Okayamalite
_exptl_crystal_density_diffrn 3.28
_citation_title

;
Rietveld refinement of okayamalite, Ca2 Si Be O8: Structural evidence for the
B/Si ordered distribution
;
loop_
_citation_id
_citation_journal_full
_citation_year
_citation_journal_volume
_citation_page_first
_citation_page_last
_citation_journal_id_ASTM
primary 'American Mineralogist' 2000 85 1512 1515 AMMIAY
loop_
_citation_author_citation_id
_citation_author_name
primary 'Giuli, G.'
primary 'Bindi, L.'
primary 'Bonazzi, P.'
_cell_length_a 7.1248(2)
_cell_length_b 7.1248(2)
_cell_length_c 4.8177(2)
_cell_angle_alpha 90.
_cell_angle_beta 90.
_cell_angle_gamma 90.
_cell_volume 244.56
_cell_formula_units_Z 2
_space_group_name_H-M_alt 'P -4 21 m'
_space_group_IT_number 113
loop_
_space_group_symop_id
_space_group_symop_operation_xyz
1 '-y+1/2, -x+1/2, z'
2 'y, -x, -z'
3 'y+1/2, x+1/2, z'
4 '-y, x, -z'
5 'x+1/2, -y+1/2, -z'
6 '-x, -y, z'
7 '-x+1/2, y+1/2, -z'
8 'x, y, z'
loop_
_atom_type_symbol
_atom_type_oxidation_number
Ca2+ 2
Si4+ 4
B3+ 3
O2- -2
loop_
_atom_site_label
_atom_site_type_symbol
_atom_site_symmetry_multiplicity
_atom_site_Wyckoff_symbol
_atom_site_fract_x
_atom_site_fract_y
_atom_site_fract_z
_atom_site_U_iso_or_equiv
_atom_site_occupancy
Ca1 Ca2+ 4 e 0.3384(2) 0.1616(2) 0.5080(4) .020(1) 1.
Si1 Si4+ 2 a 0 0 0 .019(1) 1.
B1 B3+ 4 e 0.1408(4) 0.3592(4) 0.9470(9) .013(2) 1.
O1 O2- 2 c 0.5 0 0.1460(2) .013(2) 1.
O2 O2- 4 e 0.1424(5) 0.3576(5) 0.2517(7) .013(1) 1.
O3 O2- 8 f 0.0782(4) 0.1777(4) 0.8105(7) .013(1) 1.
#End of TTdata_5244-ICSD