
#(C) 2020 by FIZ Karlsruhe - Leibniz Institute for Information Infrastructure.  All rights reserved.
data_54759-ICSD
_database_code_ICSD 54759
_audit_creation_date 2005-10-01
_chemical_name_common 'Tristrontium diyttrium tetrakis(borate)'
_chemical_formula_structural 'Sr3 Y2 (B O3)4'
_chemical_formula_sum 'B4 O12 Sr3 Y2'
_chemical_name_structure_type Er2Sr3(BO3)4
_exptl_crystal_density_diffrn 4.37
_citation_title 'Red photoluminescence and crystal structure of Sr3 Y2 (B O3)4'
loop_
_citation_id
_citation_journal_full
_citation_year
_citation_journal_volume
_citation_page_first
_citation_page_last
_citation_journal_id_ASTM
primary 'Journal of Alloys and Compounds' 2004 384 88 92 JALCEU
loop_
_citation_author_citation_id
_citation_author_name
primary 'Zhang Yue'
primary 'Li Yadong'
_cell_length_a 8.6936(3)
_cell_length_b 15.9706(6)
_cell_length_c 7.3912(3)
_cell_angle_alpha 90.
_cell_angle_beta 90.
_cell_angle_gamma 90.
_cell_volume 1026.21
_cell_formula_units_Z 4
_space_group_name_H-M_alt 'P c 21 n'
_space_group_IT_number 33
loop_
_space_group_symop_id
_space_group_symop_operation_xyz
1 '-x+1/2, y, z+1/2'
2 'x+1/2, y+1/2, -z+1/2'
3 '-x, y+1/2, -z'
4 'x, y, z'
loop_
_atom_type_symbol
_atom_type_oxidation_number
Y3+ 3
Sr2+ 2
B3+ 3
O2- -2
loop_
_atom_site_label
_atom_site_type_symbol
_atom_site_symmetry_multiplicity
_atom_site_Wyckoff_symbol
_atom_site_fract_x
_atom_site_fract_y
_atom_site_fract_z
_atom_site_B_iso_or_equiv
_atom_site_occupancy
Y1 Y3+ 4 a 0.0363(1) 0.5655(54) 0.1759(1) 1.1(1) 1.
Y2 Y3+ 4 a 0.1736(2) 0.4059(54) 0.4928(3) 1.2(2) 1.
Sr1 Sr2+ 4 a 0.1625(2) 0.1897(54) 0.2109(3) 1.1(2) 1.
Sr2 Sr2+ 4 a 0.1771(3) 0.7372(54) 0.4733(4) 0.9(3) 1.
Sr3 Sr2+ 4 a 0.1451(3) 0.9426(54) 0.1850(3) 1.5(1) 1.
B1 B3+ 4 a 0.054(15) 0.8660(54) 0.8250(17) 1.0(2) 1.
B2 B3+ 4 a 0.045(23) 0.2370(51) 0.7721(31) 0.9(3) 1.
B3 B3+ 4 a 0.1497(12) 0.5511(53) 0.7930(14) 1.2(1) 1.
B4 B3+ 4 a 0.1336(13) 0.0496(53) 0.5053(14) 1.3(1) 1.
O1 O2- 4 a 0.046(11) 0.4083(53) 0.0751(10) 1.5(2) 1.
O2 O2- 4 a 0.2020(9) 0.8752(54) 0.8918(12) 1.6(3) 1.
O3 O2- 4 a 0.0075(9) 0.3181(54) 0.3084(11) 1.3(2) 1.
O4 O2- 4 a 0.0612(12) 0.6815(53) 0.1500(13) 1.2(3) 1.
O5 O2- 4 a 0.1502(9) 0.2623(53) 0.8950(13) 1.6(1) 1.
O6 O2- 4 a 0.0080(12) 0.2869(53) 0.6335(12) 1.5(2) 1.
O7 O2- 4 a 0.0080(8) 0.0444(52) 0.1750(9) 1.3(2) 1.
O8 O2- 4 a 0.2520(7) 0.4900(5) 0.7396(9) 1.4(2) 1.
O9 O2- 4 a 0.1999(8) 0.6302(54) 0.7640(11) 1.5(3) 1.
O10 O2- 4 a 0.0699(14) 0.9709(52) 0.5053(12) 1.6(2) 1.
O11 O2- 4 a 0.0697(6) 0.1282(54) 0.5407(6) 1.3(1) 1.
O12 O2- 4 a 0.2432(7) 0.0532(52) 0.8905(8) 1.4(2) 1.
#End of TTdata_54759-ICSD