
#(C) 2020 by FIZ Karlsruhe - Leibniz Institute for Information Infrastructure.  All rights reserved.
data_54854-ICSD
_database_code_ICSD 54854
_audit_creation_date 2005-10-01
_chemical_name_common 'Tetraaluminium hexaborate'
_chemical_formula_structural 'Al4 (B6 O15)'
_chemical_formula_sum 'Al4 B6 O15'
_exptl_crystal_density_diffrn 2.8
_citation_title
'PKU-5: an aluminoborate with novel octahedrral framework topologyy'
loop_
_citation_id
_citation_journal_full
_citation_year
_citation_journal_volume
_citation_page_first
_citation_page_last
_citation_journal_id_ASTM
primary 'Chemistry - A European Journal' 2004 10 3901 3906 CEUJED
loop_
_citation_author_citation_id
_citation_author_name
primary 'Ju Jing'
primary 'Yang Tao'
primary 'Li Guo Bao'
primary 'Liao Fuhui'
primary 'Wang Yingxia'
primary 'You Liping'
primary 'Lin Jian Hua'
_cell_length_a 11.43398(9)
_cell_length_b 11.43398(9)
_cell_length_c 6.48307(5)
_cell_angle_alpha 90.
_cell_angle_beta 90.
_cell_angle_gamma 120.
_cell_volume 734.02
_cell_formula_units_Z 3
_space_group_name_H-M_alt 'R 3 H'
_space_group_IT_number 146
loop_
_space_group_symop_id
_space_group_symop_operation_xyz
1 '-x+y, -x, z'
2 '-y, x-y, z'
3 'x, y, z'
4 '-x+y+2/3, -x+1/3, z+1/3'
5 '-y+2/3, x-y+1/3, z+1/3'
6 'x+2/3, y+1/3, z+1/3'
7 '-x+y+1/3, -x+2/3, z+2/3'
8 '-y+1/3, x-y+2/3, z+2/3'
9 'x+1/3, y+2/3, z+2/3'
loop_
_atom_type_symbol
_atom_type_oxidation_number
Al3+ 3
O2- -2
B3+ 3
loop_
_atom_site_label
_atom_site_type_symbol
_atom_site_symmetry_multiplicity
_atom_site_Wyckoff_symbol
_atom_site_fract_x
_atom_site_fract_y
_atom_site_fract_z
_atom_site_B_iso_or_equiv
_atom_site_occupancy
Al1 Al3+ 3 a 0 0 0 0.73(29) 1.
Al2 Al3+ 9 b 0.97702(37) 0.23442(45) 0.9426(10) 0.80(27) 1.
O1 O2- 9 b 0.79868(59) 0.62563(64) 0.0982(12) 0.45(32) 1.
O2 O2- 9 b 0.80273(65) 0.49487(60) 0.8039(16) 0.44(29) 1.
O3 O2- 9 b 0.82383(66) 0.43333(66) 0.1518(11) 0.40(30) 1.
O4 O2- 9 b 0.70812(55) 0.49220(67) 0.4709(14) 0.40(31) 1.
O5 O2- 9 b 0.93061(78) 0.31519(68) 0.7414(10) 0.40(35) 1.
B1 B3+ 9 b 0.7235(12) 0.5254(11) 0.6706(17) 0.80(36) 1.
B2 B3+ 9 b 0.8078(12) 0.5230(12) 0.0145(17) 0.80(32) 1.
#End of TTdata_54854-ICSD