
#(C) 2020 by FIZ Karlsruhe - Leibniz Institute for Information Infrastructure.  All rights reserved.
data_55082-ICSD
_database_code_ICSD 55082
_audit_creation_date 2005-04-01
_audit_update_record 2012-02-01
_chemical_name_common 'Boron phosphate(V)'
_chemical_formula_structural 'B (P O4)'
_chemical_formula_sum 'B1 O4 P1'
_chemical_name_structure_type BPO4
_exptl_crystal_density_diffrn 2.8
_citation_title 'Growth and characterization of B P O4 single crystals'
loop_
_citation_id
_citation_journal_full
_citation_year
_citation_journal_volume
_citation_page_first
_citation_page_last
_citation_journal_id_ASTM
primary 'Zeitschrift fuer Anorganische und Allgemeine Chemie (1950) (DE)' 2004
630 655 662 ZAACAB
loop_
_citation_author_citation_id
_citation_author_name
primary 'Schmidt, M.'
primary 'Ewald, B.'
primary 'Prots', Yu. (Prots, Yu.)'
primary 'Cardoso-Gil, R.'
primary 'Armbruester, M.'
primary 'Loa, I.'
primary 'Zhang, L.'
primary 'Huang Ya Xi'
primary 'Schwarz, U.'
primary 'Kniep, R.'
_cell_length_a 4.3404(1)
_cell_length_b 4.3404(1)
_cell_length_c 6.6502(2)
_cell_angle_alpha 90
_cell_angle_beta 90
_cell_angle_gamma 90
_cell_volume 125.28
_cell_formula_units_Z 2
_space_group_name_H-M_alt 'I -4'
_space_group_IT_number 82
loop_
_space_group_symop_id
_space_group_symop_operation_xyz
1 '-y, x, -z'
2 'y, -x, -z'
3 '-x, -y, z'
4 'x, y, z'
5 '-y+1/2, x+1/2, -z+1/2'
6 'y+1/2, -x+1/2, -z+1/2'
7 '-x+1/2, -y+1/2, z+1/2'
8 'x+1/2, y+1/2, z+1/2'
loop_
_atom_type_symbol
_atom_type_oxidation_number
P5+ 5
B3+ 3
O2- -2
loop_
_atom_site_label
_atom_site_type_symbol
_atom_site_symmetry_multiplicity
_atom_site_Wyckoff_symbol
_atom_site_fract_x
_atom_site_fract_y
_atom_site_fract_z
_atom_site_U_iso_or_equiv
_atom_site_occupancy
P1 P5+ 2 a 0 0 0 0.0052(1) 1.
B1 B3+ 2 c 0 0.5 0.25 0.0069(1) 1.
O1 O2- 8 g 0.1405(2) 0.2579(2) 0.1271(1) 0.0081(1) 1.
loop_
_atom_site_aniso_label
_atom_site_aniso_type_symbol
_atom_site_aniso_U_11
_atom_site_aniso_U_22
_atom_site_aniso_U_33
_atom_site_aniso_U_12
_atom_site_aniso_U_13
_atom_site_aniso_U_23
P1 P5+ .0054(1) .0054(1) .0098(3) 0. 0. 0.
B1 B3+ .0067(4) .0067(4) .0073(8) 0. 0. 0.
O1 O2- .0073(2) .0086(2) .0083(3) -.0001(2) -.0001(2) -.0032(2)
#End of TTdata_55082-ICSD