
#(C) 2020 by FIZ Karlsruhe - Leibniz Institute for Information Infrastructure.  All rights reserved.
data_59277-ICSD
_database_code_ICSD 59277
_audit_creation_date 1999-01-19
_chemical_name_common
'Dipotassium strontium bis(tetrahydroxopentaoxotetraborate) decahydrate'
_chemical_formula_structural 'K2 Sr (B4 O5 (O H)4)2 (H2 O)10'
_chemical_formula_sum 'H28 B8 K2 O28 Sr1'
_exptl_crystal_density_diffrn 1.92
_citation_title

;
Potassium strontium tetraborate decahydrate and ammonium calcium tetraborate
octahydrate
;
loop_
_citation_id
_citation_journal_full
_citation_year
_citation_journal_volume
_citation_page_first
_citation_page_last
_citation_journal_id_ASTM
primary 'Acta Crystallographica, Section C: Crystal Structure Communications'
1997 53 994 997 ACSCEE
loop_
_citation_author_citation_id
_citation_author_name
primary 'Solans, X.'
primary 'Solans, J.'
primary 'Domenech, M.V.'
_cell_length_a 16.7460(20)
_cell_length_b 12.974(2)
_cell_length_c 11.582(2)
_cell_angle_alpha 90.
_cell_angle_beta 90.
_cell_angle_gamma 90.
_cell_volume 2516.34
_cell_formula_units_Z 4
_space_group_name_H-M_alt 'P n a 21'
_space_group_IT_number 33
loop_
_space_group_symop_id
_space_group_symop_operation_xyz
1 'x+1/2, -y+1/2, z'
2 '-x+1/2, y+1/2, z+1/2'
3 '-x, -y, z+1/2'
4 'x, y, z'
loop_
_atom_type_symbol
_atom_type_oxidation_number
Sr2+ 2
O2- -2
B3+ 3
O2- -2
B3+ 3
O2- -2
B3+ 3
O2- -2
B3+ 3
O2- -2
K1+ 1
O2- -2
B3+ 3
O2- -2
B3+ 3
O2- -2
B3+ 3
O2- -2
B3+ 3
O2- -2
H1+ 1
loop_
_atom_site_label
_atom_site_type_symbol
_atom_site_symmetry_multiplicity
_atom_site_Wyckoff_symbol
_atom_site_fract_x
_atom_site_fract_y
_atom_site_fract_z
_atom_site_U_iso_or_equiv
_atom_site_occupancy
Sr1 Sr2+ 4 a 0.19827(4) 0.20292(5) 0.6271 . 1.
O1 O2- 4 a 0.5127(3) 0.5466(4) 0.0416(5) . 1.
B1 B3+ 4 a 0.4482(5) 0.4723(7) 0.0607(7) . 1.
O2 O2- 4 a 0.4855(3) 0.3720(4) 0.0996(4) . 1.
B2 B3+ 4 a 0.5635(5) 0.3513(7) 0.0721(9) . 1.
O3 O2- 4 a 0.6066(3) 0.4125(4) -.0011(5) . 1.
B3 B3+ 4 a 0.5689(6) 0.5086(7) -.0455(9) . 1.
O4 O2- 4 a 0.5247(3) 0.4856(4) -.1553(5) . 1.
B4 B3+ 4 a 0.4453(5) 0.4627(7) -.1518(9) . 1.
O5 O2- 4 a 0.4042(3) 0.4527(4) -.0505(5) . 1.
O6 O2- 4 a 0.3895(3) 0.5094(4) 0.1433(5) . 1.
O7 O2- 4 a 0.6023(3) 0.2671(4) 0.1144(7) . 1.
O8 O2- 4 a 0.6327(3) 0.5806(4) -.0710(5) . 1.
O9 O2- 4 a 0.4018(3) 0.4488(5) -.2536(5) . 1.
K1 K1+ 4 a 0.24063(12) 0.1973(2) 0.2742(2) . 1.
K2 K1+ 4 a 0.32545(15) 0.2530(2) -.0391(3) . 1.
O10 O2- 4 a 0.4866(3) -.0201(4) 0.3142(5) . 1.
B5 B3+ 4 a 0.4302(5) 0.0137(7) 0.4039(8) . 1.
O11 O2- 4 a 0.4727(3) 0.0240(4) 0.5163(5) . 1.
B6 B3+ 4 a 0.5525(5) 0.0458(6) 0.5175(9) . 1.
O12 O2- 4 a 0.5942(3) 0.0618(4) 0.4159(5) . 1.
B7 B3+ 4 a 0.5530(5) 0.0522(7) 0.3049(8) . 1.
O13 O2- 4 a 0.5189(3) 0.1571(4) 0.2732(5) . 1.
B8 B3+ 4 a 0.4410(5) 0.1786(7) 0.3010(8) . 1.
O14 O2- 4 a 0.3965(3) 0.1158(4) 0.3711(5) . 1.
O15 O2- 4 a 0.3623(3) -.0557(4) 0.4157(5) . 1.
O16 O2- 4 a 0.5946(3) 0.0539(4) 0.6168(6) . 1.
O17 O2- 4 a 0.6117(3) 0.0229(4) 0.2177(5) . 1.
O18 O2- 4 a 0.4047(3) 0.2661(4) 0.2604(6) . 1.
O19 O2- 4 a 0.2325(4) 0.0704(4) 0.4679(6) . 1.
O20 O2- 4 a 0.2256(4) 0.3300(4) 0.4616(6) . 1.
O21 O2- 4 a 0.1074(4) 0.2242(5) 0.8017(6) . 1.
O22 O2- 4 a 0.3592(4) 0.2259(4) 0.5883(5) . 1.
O23 O2- 4 a 0.2578(3) 0.3691(4) 0.1385(7) . 1.
O24 O2- 4 a 0.2690(4) 0.0824(5) 0.0844(6) . 1.
O25 O2- 4 a 0.2537(3) 0.3524(5) 0.7600(6) . 1.
O26 O2- 4 a 0.2633(4) 0.0930(5) 0.7926(6) . 1.
O27 O2- 4 a 0.0752(5) 0.2129(5) 0.4953(8) . 1.
O28 O2- 4 a 0.4494(4) 0.2130(5) -.1923(7) . 1.
H1 H1+ 4 a 0.4025 0.4955 0.2234 0.074 1.
H2 H1+ 4 a 0.5679 0.2265 0.1639 0.074 1.
H3 H1+ 4 a 0.6284 0.642 -.1184 0.074 1.
H4 H1+ 4 a 0.4395 0.4559 -.3168 0.074 1.
H5 H1+ 4 a 0.3831 -.1165 0.4541 0.074 1.
H6 H1+ 4 a 0.6182 -.003 0.6588 0.074 1.
H7 H1+ 4 a 0.5961 0.0069 0.1389 0.074 1.
H8 H1+ 4 a 0.434 0.3053 0.2029 0.074 1.
H9 H1+ 4 a 0.2838 0.036 0.4593 0.074 1.
H10 H1+ 4 a 0.1923 0.0173 0.4579 0.074 1.
H11 H1+ 4 a 0.2703 0.3736 0.4409 0.074 1.
H12 H1+ 4 a 0.1837 0.3799 0.4466 0.074 1.
H13 H1+ 4 a 0.0523 0.2462 0.8074 0.074 1.
H14 H1+ 4 a 0.1101 0.1693 0.8583 0.074 1.
H15 H1+ 4 a 0.3572 0.1709 0.6447 0.074 1.
H16 H1+ 4 a 0.4082 0.2217 0.5442 0.074 1.
H17 H1+ 4 a 0.3011 0.4188 0.1404 0.074 1.
H18 H1+ 4 a 0.2065 0.4019 0.1503 0.074 1.
H19 H1+ 4 a 0.2923 0.0142 0.0853 0.074 1.
H20 H1+ 4 a 0.222 0.0664 0.0389 0.074 1.
H21 H1+ 4 a 0.2174 0.399 0.7993 0.074 1.
H22 H1+ 4 a 0.3016 0.3961 0.742 0.074 1.
H23 H1+ 4 a 0.301 0.0433 0.7623 0.074 1.
H24 H1+ 4 a 0.2213 0.0521 0.8282 0.074 1.
H25 H1+ 4 a 0.0372 0.1586 0.5141 0.074 1.
H26 H1+ 4 a 0.0904 0.2485 0.4246 0.074 1.
H27 H1+ 4 a 0.413 0.2326 -.2536 0.074 1.
H28 H1+ 4 a 0.4682 0.1423 -.1888 0.074 1.
loop_
_atom_site_aniso_label
_atom_site_aniso_type_symbol
_atom_site_aniso_U_11
_atom_site_aniso_U_22
_atom_site_aniso_U_33
_atom_site_aniso_U_12
_atom_site_aniso_U_13
_atom_site_aniso_U_23
Sr1 Sr2+ 0.0205(3) 0.0252(3) 0.0175(3) -.0019(3) 0.0003(4) 0.0003(4)
O1 O2- 0.015(3) 0.017(3) 0.020(3) -.003(2) -.004(2) -.001(2)
B1 B3+ 0.016(5) 0.025(5) 0.005(4) 0.006(4) -.005(4) -.002(4)
O2 O2- 0.021(3) 0.017(2) 0.016(3) 0.004(2) 0.002(2) 0.006(2)
B2 B3+ 0.020(5) 0.030(5) 0.023(5) 0.003(4) -.002(4) 0.011(4)
O3 O2- 0.018(3) 0.025(3) 0.023(3) 0.006(2) 0.006(2) 0.010(3)
B3 B3+ 0.017(5) 0.022(5) 0.019(5) -.002(4) 0.000(4) 0.006(5)
O4 O2- 0.018(3) 0.021(3) 0.017(3) -.005(2) 0.001(2) 0.003(2)
B4 B3+ 0.018(5) 0.021(5) 0.024(5) -.004(4) 0.004(4) 0.000(4)
O5 O2- 0.015(3) 0.025(3) 0.008(2) -.002(2) 0.000(2) -.004(2)
O6 O2- 0.015(2) 0.029(3) 0.017(3) 0.004(2) 0.001(2) 0.004(3)
O7 O2- 0.032(3) 0.038(4) 0.051(4) 0.019(2) 0.014(4) 0.028(4)
O8 O2- 0.021(3) 0.037(3) 0.025(3) -.017(3) -.009(3) 0.013(3)
O9 O2- 0.020(3) 0.046(4) 0.013(3) -.007(3) -.002(3) -.002(3)
K1 K1+ 0.0442(11) 0.0345(11) 0.0239(10) -.0016(9) 0.0013(9) -.0006(10)
K2 K1+ 0.066(2) 0.0356(11) 0.0411(12) -.0010(11) 0.0100(12) -.0007(11)
O10 O2- 0.015(3) 0.017(3) 0.013(3) -.002(2) 0.003(2) -.003(2)
B5 B3+ 0.013(4) 0.022(5) 0.010(4) 0.005(4) -.005(4) 0.001(4)
O11 O2- 0.020(3) 0.031(3) 0.011(3) -.003(2) 0.000(2) -.002(3)
B6 B3+ 0.022(5) 0.015(5) 0.018(5) 0.003(4) 0.001(4) 0.003(4)
O12 O2- 0.015(3) 0.025(3) 0.014(3) -.006(2) 0.002(2) 0.003(2)
B7 B3+ 0.012(4) 0.020(5) 0.017(5) 0.005(3) -.004(4) -.004(4)
O13 O2- 0.014(2) 0.019(3) 0.027(3) 0.002(2) 0.002(2) 0.006(2)
B8 B3+ 0.011(4) 0.027(5) 0.017(5) 0.002(3) 0.003(4) -.003(4)
O14 O2- 0.018(3) 0.022(3) 0.019(3) 0.000(2) 0.005(2) 0.001(2)
O15 O2- 0.022(3) 0.020(3) 0.028(3) -.010(2) 0.005(3) 0.005(2)
O16 O2- 0.024(3) 0.051(4) 0.018(3) 0.000(2) -.010(3) 0.001(3)
O17 O2- 0.015(3) 0.021(3) 0.019(3) 0.005(2) 0.004(2) -.002(2)
O18 O2- 0.022(3) 0.024(3) 0.036(3) 0.006(2) 0.010(3) 0.010(3)
O19 O2- 0.025(3) 0.021(3) 0.034(4) -.004(3) 0.010(3) 0.000(3)
O20 O2- 0.022(3) 0.018(3) 0.035(3) 0.001(3) -.001(3) 0.005(3)
O21 O2- 0.034(4) 0.034(4) 0.035(4) 0.003(3) 0.015(3) 0.007(3)
O22 O2- 0.030(3) 0.038(4) 0.025(3) 0.002(3) 0.000(2) -.003(2)
O23 O2- 0.024(3) 0.030(3) 0.045(4) -.001(2) 0.001(4) 0.012(3)
O24 O2- 0.039(4) 0.030(3) 0.046(4) -.003(3) -.002(3) -.008(3)
O25 O2- 0.031(4) 0.028(3) 0.037(4) -.006(3) -.002(3) -.006(3)
O26 O2- 0.037(4) 0.028(4) 0.035(4) 0.011(3) -.003(3) 0.006(3)
O27 O2- 0.047(5) 0.038(4) 0.075(6) -.022(3) -.028(4) 0.030(4)
O28 O2- 0.037(3) 0.025(3) 0.057(5) 0.007(3) -.007(3) -.003(3)
#End of TTdata_59277-ICSD