
#(C) 2020 by FIZ Karlsruhe - Leibniz Institute for Information Infrastructure.  All rights reserved.
data_59861-ICSD
_database_code_ICSD 59861
_audit_creation_date 2005-10-01
_chemical_name_common 'Dilead pentaborate bromide'
_chemical_formula_structural 'Pb2 (B5 O9) Br'
_chemical_formula_sum 'B5 Br1 O9 Pb2'
_chemical_name_structure_type Ca2B5O9Br
_exptl_crystal_density_diffrn 5.34
_citation_title
'Reinvestigation of the Pb2 [B5 O9] Br structure based on single-crystal data'
loop_
_citation_id
_citation_journal_full
_citation_year
_citation_journal_volume
_citation_page_first
_citation_page_last
_citation_journal_id_ASTM
primary 'Acta Crystallographica, Section E: Structure Reports Online' 2004 60
i127 i130 ACSEBH
loop_
_citation_author_citation_id
_citation_author_name
primary 'Yakubovich, O.V.'
primary 'Mochenova, N.N.'
primary 'Dimitrova, O.V.'
primary 'Massa, W.'
_cell_length_a 11.4935(19)
_cell_length_b 11.4717(19)
_cell_length_c 6.5297(11)
_cell_angle_alpha 90.
_cell_angle_beta 90.
_cell_angle_gamma 90.
_cell_volume 860.94
_cell_formula_units_Z 4
_space_group_name_H-M_alt 'P n n 2'
_space_group_IT_number 34
loop_
_space_group_symop_id
_space_group_symop_operation_xyz
1 'x+1/2, -y+1/2, z+1/2'
2 '-x+1/2, y+1/2, z+1/2'
3 '-x, -y, z'
4 'x, y, z'
loop_
_atom_type_symbol
_atom_type_oxidation_number
Pb2+ 2
Br1- -1
O2- -2
B3+ 3
loop_
_atom_site_label
_atom_site_type_symbol
_atom_site_symmetry_multiplicity
_atom_site_Wyckoff_symbol
_atom_site_fract_x
_atom_site_fract_y
_atom_site_fract_z
_atom_site_U_iso_or_equiv
_atom_site_occupancy
Pb1 Pb2+ 4 c 0.25762(6) 0.04280(6) 0.00433(9) 0.01489(12) 1
Pb2 Pb2+ 4 c 0.02631(6) 0.23505(5) -0.66205(14) 0.01614(13) 1
Br1 Br1- 2 a 0. 0. -0.9081(5) 0.0289(6) 1
Br2 Br1- 2 b 0. 0.5 -0.6476(6) 0.0259(5) 1
O1 O2- 4 c 0.2376(8) 0.3135(8) -0.5784(14) 0.0030(16) 1
O2 O2- 4 c 0.2084(8) 0.4248(8) -0.173(2) 0.0108(16) 1
O3 O2- 4 c 0.2717(8) 0.2256(9) -0.2448(16) 0.0079(19) 1
O4 O2- 4 c 0.0686(11) 0.2753(11) -0.2398(19) 0.017(2) 1
O5 O2- 4 c 0.2790(9) 0.4487(11) -0.835(2) 0.015(2) 1
O6 O2- 4 c 0.3827(9) 0.2616(9) -0.8357(17) 0.0092(18) 1
O7 O2- 4 c 0.1785(8) 0.2698(9) -0.9231(15) 0.0046(16) 1
O8 O2- 4 c 0.4168(8) 0.2110(9) -0.4921(18) 0.0090(16) 1
O9 O2- 4 c 0.2339(9) 0.1103(10) -0.5577(16) 0.0106(19) 1
B1 B3+ 4 c 0.2706(13) 0.3217(14) -0.795(2) 0.008(3) 1
B2 B3+ 4 c 0.1803(13) 0.3009(14) -0.146(3) 0.012(3) 1
B3 B3+ 4 c 0.2864(14) 0.2180(15) -0.460(2) 0.010(3) 1
B4 B3+ 4 c 0.4556(13) 0.2354(16) -0.683(3) 0.011(3) 1
B5 B3+ 4 c 0.2513(15) 0.4950(14) -0.019(3) 0.009(3) 1
loop_
_atom_site_aniso_label
_atom_site_aniso_type_symbol
_atom_site_aniso_U_11
_atom_site_aniso_U_22
_atom_site_aniso_U_33
_atom_site_aniso_U_12
_atom_site_aniso_U_13
_atom_site_aniso_U_23
Pb1 Pb2+ 0.0172(2) 0.0170(2) 0.0105(2) 0.0011(2) 0.0010(2) 0.0004(3)
Pb2 Pb2+ 0.0187(2) 0.0179(2) 0.0118(3) -0.0013(2) 0.0034(3) 0.0000(3)
Br1 Br1- 0.0202(12) 0.0154(10) 0.0511(19) -0.0011(10) 0. 0.
Br2 Br1- 0.0188(11) 0.0179(10) 0.0411(16) 0.0002(8) 0. 0.
#End of TTdata_59861-ICSD