
#(C) 2020 by FIZ Karlsruhe - Leibniz Institute for Information Infrastructure.  All rights reserved.
data_60002-ICSD
_database_code_ICSD 60002
_audit_creation_date 1986-04-14
_chemical_name_common 'Potassium germanium oxide nitride'
_chemical_formula_structural 'K Ge O N'
_chemical_formula_sum 'Ge1 K1 N1 O1'
_chemical_name_structure_type LiSiON
_exptl_crystal_density_diffrn 3.9
_citation_title
'Preparation et structure de K Ge O N: un compose a liaison potassium-azote'
loop_
_citation_id
_citation_journal_full
_citation_year
_citation_journal_volume
_citation_page_first
_citation_page_last
_citation_journal_id_ASTM
primary 'Revue de Chimie Minerale' 1983 20 863 870 RVCMA8
loop_
_citation_author_citation_id
_citation_author_name
primary 'Guyader, J.'
primary 'Jacquet, R.'
primary 'Malhaire, J.M.'
primary 'Roult, G.'
primary 'Laurent, Y.'
_cell_length_a 5.7376(6)
_cell_length_b 8.0535(11)
_cell_length_c 5.2173(5)
_cell_angle_alpha 90.
_cell_angle_beta 90.
_cell_angle_gamma 90.
_cell_volume 241.08
_cell_formula_units_Z 4
_space_group_name_H-M_alt 'P c a 21'
_space_group_IT_number 29
loop_
_space_group_symop_id
_space_group_symop_operation_xyz
1 'x+1/2, -y, z'
2 '-x+1/2, y, z+1/2'
3 '-x, -y, z+1/2'
4 'x, y, z'
loop_
_atom_type_symbol
_atom_type_oxidation_number
K1+ 1
Ge4+ 4
O2- -2
N3- -3
loop_
_atom_site_label
_atom_site_type_symbol
_atom_site_symmetry_multiplicity
_atom_site_Wyckoff_symbol
_atom_site_fract_x
_atom_site_fract_y
_atom_site_fract_z
_atom_site_B_iso_or_equiv
_atom_site_occupancy
K1 K1+ 4 a 0.556(3) 0.355(2) 0.017(4) 1. 1.
Ge1 Ge4+ 4 a 0.093(1) 0.096(1) 0 1. 1.
O1 O2- 4 a 0.471(1) 0.310(2) 0.526(3) 1. 1.
N1 N3- 4 a 0.127(2) 0.043(1) 0.649(2) 1. 1.
#End of TTdata_60002-ICSD