
#(C) 2020 by FIZ Karlsruhe - Leibniz Institute for Information Infrastructure.  All rights reserved.
data_60080-ICSD
_database_code_ICSD 60080
_audit_creation_date 1986-04-14
_audit_update_record 2012-02-01
_chemical_name_common 'Chloryl tetrafluoroborate'
_chemical_formula_structural '(Cl O2) (B F4)'
_chemical_formula_sum 'B1 Cl1 F4 O2'
_chemical_name_structure_type ClO2BF4
_exptl_crystal_density_diffrn 2.27
_citation_title

;
Fluoride ion affinities of Ge F4 and B F3 from thermodynamic and structural
data for (S F3)2 Ge F6, Cl O2 Ge F5, and Cl O2 B F4
;
loop_
_citation_id
_citation_journal_full
_citation_year
_citation_journal_volume
_citation_page_first
_citation_page_last
_citation_journal_id_ASTM
primary 'Inorganic Chemistry' 1984 23 3167 3173 INOCAJ
loop_
_citation_author_citation_id
_citation_author_name
primary 'Mallouk, T.E.'
primary 'Rosenthal, G.L.'
primary 'Mueller, G.'
primary 'Brusasco, R.'
primary 'Bartlett, N.'
_cell_length_a 5.522(1)
_cell_length_b 8.646(1)
_cell_length_c 9.549(2)
_cell_angle_alpha 90.
_cell_angle_beta 98.01(1)
_cell_angle_gamma 90.
_cell_volume 451.45
_cell_formula_units_Z 4
_space_group_name_H-M_alt 'C 1 c 1'
_space_group_IT_number 9
loop_
_space_group_symop_id
_space_group_symop_operation_xyz
1 'x, -y, z+1/2'
2 'x, y, z'
3 'x+1/2, -y+1/2, z+1/2'
4 'x+1/2, y+1/2, z'
loop_
_atom_type_symbol
_atom_type_oxidation_number
Cl5+ 5
O2- -2
B3+ 3
F1- -1
loop_
_atom_site_label
_atom_site_type_symbol
_atom_site_symmetry_multiplicity
_atom_site_Wyckoff_symbol
_atom_site_fract_x
_atom_site_fract_y
_atom_site_fract_z
_atom_site_B_iso_or_equiv
_atom_site_occupancy
Cl1 Cl5+ 4 a 0 -.07352(6) 0.25 . 1.
O1 O2- 4 a -.0377(5) 0.0756(2) 0.2990(3) . 1.
O2 O2- 4 a -.0747(4) -.1995(2) 0.3237(2) . 1.
B1 B3+ 4 a 0.4884(6) 0.0675(3) 0.0152(4) . 1.
F1 F1- 4 a 0.6348(4) -.0580(2) 0.0578(2) . 1.
F2 F1- 4 a 0.2652(4) 0.0549(2) 0.0626(2) . 1.
F3 F1- 4 a 0.4492(3) 0.0723(2) -.1310(2) . 1.
F4 F1- 4 a 0.6048(3) 0.2003(2) 0.0680(2) . 1.
#End of TTdata_60080-ICSD