
#(C) 2020 by FIZ Karlsruhe - Leibniz Institute for Information Infrastructure.  All rights reserved.
data_60108-ICSD
_database_code_ICSD 60108
_audit_creation_date 1986-04-14
_chemical_name_common 'Chloryl pentafluorogermanate'
_chemical_formula_structural 'Cl O2 Ge F5'
_chemical_formula_sum 'Cl1 F5 Ge1 O2'
_exptl_crystal_density_diffrn 3.16
_citation_title

;
Structural studies of salts of cis and trans mue-fluorobridged polymers of Ge
F5(-) and of the Ge F5(-) monomer
;
loop_
_citation_id
_citation_journal_full
_citation_year
_citation_journal_volume
_citation_page_first
_citation_page_last
_citation_journal_id_ASTM
primary 'Inorganic Chemistry' 1984 23 3160 3166 INOCAJ
loop_
_citation_author_citation_id
_citation_author_name
primary 'Mallouk, T.E.'
primary 'Desbat, B.'
primary 'Bartlett, N.'
_cell_length_a 14.6480(15)
_cell_length_b 7.5762(11)
_cell_length_c 8.8941(15)
_cell_angle_alpha 90.
_cell_angle_beta 90.
_cell_angle_gamma 90.
_cell_volume 987.03
_cell_formula_units_Z 8
_space_group_name_H-M_alt 'C 2 2 21'
_space_group_IT_number 20
loop_
_space_group_symop_id
_space_group_symop_operation_xyz
1 '-x, y, -z+1/2'
2 '-x, -y, z+1/2'
3 'x, -y, -z'
4 'x, y, z'
5 '-x+1/2, y+1/2, -z+1/2'
6 '-x+1/2, -y+1/2, z+1/2'
7 'x+1/2, -y+1/2, -z'
8 'x+1/2, y+1/2, z'
loop_
_atom_type_symbol
_atom_type_oxidation_number
Ge4+ 4
Cl5+ 5
F1- -1
O2- -2
loop_
_atom_site_label
_atom_site_type_symbol
_atom_site_symmetry_multiplicity
_atom_site_Wyckoff_symbol
_atom_site_fract_x
_atom_site_fract_y
_atom_site_fract_z
_atom_site_B_iso_or_equiv
_atom_site_occupancy
Ge1 Ge4+ 8 c 0.11474(7) 0.11118(1) 0.3194(1) . 1.
Cl1 Cl5+ 4 a -.3858(3) 0 0 . 1.
Cl2 Cl5+ 4 a 0.2708(3) 0 0 . 1.
F1 F1- 8 c 0.1386(4) 0.2148(8) 0.1444(7) . 1.
F2 F1- 4 b 0 0.0331(10) 0.25 . 1.
F3 F1- 8 c 0.0601(4) 0.2980(7) 0.3863(8) . 1.
F4 F1- 8 c 0.2196(4) 0.1734(7) 0.4027(7) . 1.
F5 F1- 8 c 0.1571(4) -.0890(8) 0.2558(8) . 1.
F6 F1- 4 a 0.0793 0 0.5 . 1.
O1 O2- 8 c -.4339(5) 0.0864(10) 0.1144(9) . 1.
O2 O2- 8 c 0.3189(5) 0.0669(9) 0.1231(9) . 1.
#End of TTdata_60108-ICSD