
#(C) 2020 by FIZ Karlsruhe - Leibniz Institute for Information Infrastructure.  All rights reserved.
data_60651-ICSD
_database_code_ICSD 60651
_audit_creation_date 1987-03-16
_audit_update_record 2014-08-01
_chemical_name_common 'Hexapotassium digermanate'
_chemical_formula_structural 'K6 (Ge2 O7)'
_chemical_formula_sum 'Ge2 K6 O7'
_chemical_name_structure_type K6Ge2O7
_exptl_crystal_density_diffrn 3.
_citation_title 'Die Kristallstruktur des Hexakaliumdigermanats, K6 Ge2 O7'
loop_
_citation_id
_citation_journal_full
_citation_year
_citation_journal_volume
_citation_page_first
_citation_page_last
_citation_journal_id_ASTM
primary 'Monatshefte fuer Chemie' 1986 117 969 976 MOCMB7
loop_
_citation_author_citation_id
_citation_author_name
primary 'Halwax, E.'
primary 'Voellenkle, H.'
_cell_length_a 6.549(1)
_cell_length_b 9.094(1)
_cell_length_c 11.426(2)
_cell_angle_alpha 90.
_cell_angle_beta 126.78(1)
_cell_angle_gamma 90.
_cell_volume 545.03
_cell_formula_units_Z 2
_space_group_name_H-M_alt 'P 1 c 1'
_space_group_IT_number 7
loop_
_space_group_symop_id
_space_group_symop_operation_xyz
1 'x, -y, z+1/2'
2 'x, y, z'
loop_
_atom_type_symbol
_atom_type_oxidation_number
K1+ 1
Ge4+ 4
O2- -2
loop_
_atom_site_label
_atom_site_type_symbol
_atom_site_symmetry_multiplicity
_atom_site_Wyckoff_symbol
_atom_site_fract_x
_atom_site_fract_y
_atom_site_fract_z
_atom_site_U_iso_or_equiv
_atom_site_occupancy
K1 K1+ 2 a 0.849(2) 0.0383(9) 0.7219(10) 0.0213(8) 1.
K2 K1+ 2 a 0.817(2) 0.3988(12) 0.4196(12) 0.0304(9) 1.
K3 K1+ 2 a 0.715(2) 0.2224(9) 0.9646(9) 0.0185(8) 1.
K4 K1+ 2 a 0.309(2) 0.2717(9) 0.0527(9) 0.0185(8) 1.
K5 K1+ 2 a 0.198(2) 0.0969(12) 0.5844(12) 0.0304(9) 1.
K6 K1+ 2 a 0.166(2) 0.4742(9) 0.2752(10) 0.0213(8) 1.
Ge1 Ge4+ 2 a 0.4212 0.1134(4) 0.371 0.0117(4) 1.
Ge2 Ge4+ 2 a 0.5788(6) 0.3901(4) 0.6290(3) 0.0117(4) 1.
O1 O2- 2 a 0.164(5) 0.163(3) 0.198(3) 0.023(3) 1.
O2 O2- 2 a 0.701(6) 0.103(3) 0.389(3) 0.035(4) 1.
O3 O2- 2 a 0.379(5) -.033(3) 0.448(3) 0.018(3) 1.
O4 O2- 2 a 0.441(4) 0.250(3) 0.495(3) 0.032(5) 1.
O5 O2- 2 a 0.654(5) 0.548(3) 0.575(3) 0.018(3) 1.
O6 O2- 2 a 0.336(6) 0.421(3) 0.644(3) 0.035(4) 1.
O7 O2- 2 a 0.854(5) 0.324(3) 0.789(3) 0.023(3) 1.
#End of TTdata_60651-ICSD