
#(C) 2020 by FIZ Karlsruhe - Leibniz Institute for Information Infrastructure.  All rights reserved.
data_62488-ICSD
_database_code_ICSD 62488
_audit_creation_date 1988-12-19
_audit_update_record 2010-02-01
_chemical_name_common 'Dibismuth germanate'
_chemical_formula_structural 'Bi2 (Ge O5)'
_chemical_formula_sum 'Bi2 Ge1 O5'
_exptl_crystal_density_diffrn 8.18
_citation_title 'X-ray analysis of bismuth germanate Bi2 Ge O5'
loop_
_citation_id
_citation_journal_full
_citation_year
_citation_journal_volume
_citation_page_first
_citation_page_last
_citation_journal_id_ASTM
primary 'Zhurnal Neorganicheskoi Khimii' 1986 31 1391 1396 ZNOKAQ
loop_
_citation_author_citation_id
_citation_author_name
primary 'Shashkov, A.Yu.'
primary 'Efremov, V.A.'
primary 'Busch, A.A.'
primary 'Rannev, N.V.'
primary 'Venevtsev, Yu.N.'
primary 'Trunov, V.K.'
_cell_length_a 15.686(3)
_cell_length_b 5.493(1)
_cell_length_c 5.376(2)
_cell_angle_alpha 90.
_cell_angle_beta 90.01(3)
_cell_angle_gamma 90.
_cell_volume 463.21
_cell_formula_units_Z 4
_space_group_name_H-M_alt 'C 1 c 1'
_space_group_IT_number 9
loop_
_space_group_symop_id
_space_group_symop_operation_xyz
1 'x, -y, z+1/2'
2 'x, y, z'
3 'x+1/2, -y+1/2, z+1/2'
4 'x+1/2, y+1/2, z'
loop_
_atom_type_symbol
_atom_type_oxidation_number
Bi3+ 3
Ge4+ 4
O2- -2
loop_
_atom_site_label
_atom_site_type_symbol
_atom_site_symmetry_multiplicity
_atom_site_Wyckoff_symbol
_atom_site_fract_x
_atom_site_fract_y
_atom_site_fract_z
_atom_site_B_iso_or_equiv
_atom_site_occupancy
Bi1 Bi3+ 4 a 0.1673(4) 0.2189(3) 0.25 . 1.
Bi2 Bi3+ 4 a 0.8323(1) 0.2182(3) 0.2517(3) . 1.
Ge1 Ge4+ 4 a 0.5020(3) 0.1834(6) 0.2198(6) . 1.
O1 O2- 4 a 0.250(2) 0.001(4) 0.011(7) 0.89 1.
O2 O2- 4 a 0.769(4) 0.003(7) -.002(9) 2.4 1.
O3 O2- 4 a 0.405(2) 0.333(7) 0.171(8) 1.02 1.
O4 O2- 4 a 0.593(2) 0.337(5) 0.174(5) 1.26 1.
O5 O2- 4 a -.006(2) 0.565(5) 0.523(5) 0.92 1.
#End of TTdata_62488-ICSD