
#(C) 2020 by FIZ Karlsruhe - Leibniz Institute for Information Infrastructure.  All rights reserved.
data_62559-ICSD
_database_code_ICSD 62559
_audit_creation_date 1988-02-22
_audit_update_record 2005-10-01
_chemical_name_common 'Cesium triiodogermanate(II) - LT'
_chemical_formula_structural 'Cs (Ge I3)'
_chemical_formula_sum 'Cs1 Ge1 I3'
_chemical_name_structure_type FeBiO3#KBrO3
_exptl_crystal_density_diffrn 4.55
_citation_title

;
Kristallstrukturen und Phasentransformationen von
Caesiumtrihalogenogermanaten(II) Cs Ge X3 (X=Cl,Br,I)
;
loop_
_citation_id
_citation_journal_full
_citation_year
_citation_journal_volume
_citation_page_first
_citation_page_last
_citation_journal_id_ASTM
primary 'Zeitschrift fuer Anorganische und Allgemeine Chemie (1950) (DE)' 1987
545 148 156 ZAACAB
loop_
_citation_author_citation_id
_citation_author_name
primary 'Thiele, G.'
primary 'Rotter, H.W.'
primary 'Schmidt, K.D.'
_cell_length_a 5.983(3)
_cell_length_b 5.983(3)
_cell_length_c 5.983(3)
_cell_angle_alpha 88.61(3)
_cell_angle_beta 88.61(3)
_cell_angle_gamma 88.61(3)
_cell_volume 213.98
_cell_formula_units_Z 1
_space_group_name_H-M_alt 'R 3 m R'
_space_group_IT_number 160
loop_
_space_group_symop_id
_space_group_symop_operation_xyz
1 'z, y, x'
2 'z, x, y'
3 'x, z, y'
4 'y, z, x'
5 'y, x, z'
6 'x, y, z'
loop_
_atom_type_symbol
_atom_type_oxidation_number
Ge2+ 2
Cs1+ 1
I1- -1
loop_
_atom_site_label
_atom_site_type_symbol
_atom_site_symmetry_multiplicity
_atom_site_Wyckoff_symbol
_atom_site_fract_x
_atom_site_fract_y
_atom_site_fract_z
_atom_site_B_iso_or_equiv
_atom_site_occupancy
Ge1 Ge2+ 1 a 0.4703(5) 0.4703(5) 0.4703(5) . 1.
Cs1 Cs1+ 1 a 0 0 0 . 1.
I1 I1- 3 b 0.5029(2) 0.5029(2) 0.0119(4) . 1.
loop_
_atom_site_aniso_label
_atom_site_aniso_type_symbol
_atom_site_aniso_U_11
_atom_site_aniso_U_22
_atom_site_aniso_U_33
_atom_site_aniso_U_12
_atom_site_aniso_U_13
_atom_site_aniso_U_23
Ge1 Ge2+ 0.0192(7) 0.0192(7) 0.0192(7) -0.0005(5) -0.0005(5) -0.0005(5)
Cs1 Cs1+ 0.0582(7) 0.0582(7) 0.0582(7) 0.0048(7) 0.0048(7) 0.0048(7)
I1 I1- 0.0640(6) 0.0640(6) 0.0165(6) -0.0003(4) -0.0003(4) 0.0041(6)
#End of TTdata_62559-ICSD