
#(C) 2020 by FIZ Karlsruhe - Leibniz Institute for Information Infrastructure.  All rights reserved.
data_62650-ICSD
_database_code_ICSD 62650
_audit_creation_date 1988-02-22
_audit_update_record 2009-02-01
_chemical_name_common 'Tetrasodium dipotassium digermanate'
_chemical_formula_structural 'Na4 K2 (Ge2 O7)'
_chemical_formula_sum 'Ge2 K2 Na4 O7'
_exptl_crystal_density_diffrn 3.09
_citation_title
'Die Kristallstruktur eines neuen Alkalidigermanats, Na4 K2 Ge2 O7.'
loop_
_citation_id
_citation_journal_full
_citation_year
_citation_journal_volume
_citation_page_first
_citation_page_last
_citation_journal_id_ASTM
primary 'Monatshefte fuer Chemie' 1987 118 573 582 MOCMB7
loop_
_citation_author_citation_id
_citation_author_name
primary 'Halwax, E.'
primary 'Voellenkle, H.'
_cell_length_a 6.010(3)
_cell_length_b 6.0202(3)
_cell_length_c 29.26(1)
_cell_angle_alpha 90.
_cell_angle_beta 90.
_cell_angle_gamma 119.9(1)
_cell_volume 917.76
_cell_formula_units_Z 4
_space_group_name_H-M_alt 'P 1 1 21'
_space_group_IT_number 4
loop_
_space_group_symop_id
_space_group_symop_operation_xyz
1 '-x, -y, z+1/2'
2 'x, y, z'
loop_
_atom_type_symbol
_atom_type_oxidation_number
Na1+ 1
K1+ 1
Ge4+ 4
O2- -2
loop_
_atom_site_label
_atom_site_type_symbol
_atom_site_symmetry_multiplicity
_atom_site_Wyckoff_symbol
_atom_site_fract_x
_atom_site_fract_y
_atom_site_fract_z
_atom_site_U_iso_or_equiv
_atom_site_occupancy
Na1 Na1+ 2 a 0.256(5) 0.519(5) 0.1609(10) 0.037(7) 1.
Na2 Na1+ 2 a 0.114(5) 0.950(4) 0.1663(8) 0.022(5) 1.
Na3 Na1+ 2 a 0.672(4) 0.319(4) 0.1756(7) 0.010(4) 1.
Na4 Na1+ 2 a 0.345(4) 0.006(4) 0.2661(8) 0.018(5) 1.
Na5 Na1+ 2 a 0.891(5) 0.075(5) 0.3447(9) 0.026(6) 1.
Na6 Na1+ 2 a 0.700(4) 0.099(5) 0.4407(8) 0.020(5) 1.
Na7 Na1+ 2 a 0.901(4) 0.702(5) 0.4430(9) 0.022(5) 1.
Na8 Na1+ 2 a 0.286(4) 0.513(4) 0.4490(8) 0.018(5) 1.
K1 K1+ 2 a 0.356(2) 0.240(2) 0.0507(6) 0.025(3) 1.
K2 K1+ 2 a 0.044(3) 0.593(3) 0.0522(7) 0.035(4) 1.
K3 K1+ 2 a 0.714(3) 0.737(3) 0.2468(5) 0.025(3) 1.
K4 K1+ 2 a 0.566(3) 0.373(3) 0.3528(7) 0.038(4) 1.
Ge1 Ge4+ 2 a 0.6989(11) 0.8848(10) 0 0.010(1) 1.
Ge2 Ge4+ 2 a 0.6867(11) 0.9256(11) 0.1100(3) 0.014(1) 1.
Ge3 Ge4+ 2 a 0.0745(11) 0.3945(11) 0.2552(3) 0.013(1) 1.
Ge4 Ge4+ 2 a 0.2355(11) 0.6842(11) 0.3556(3) 0.015(1) 1.
O1 O2- 2 a 0.435(8) 0.630(8) -.0302(15) 0.023(10) 1.
O2 O2- 2 a 0.976(7) 0.904(7) -.0161(14) 0.016(8) 1.
O3 O2- 2 a 0.713(8) 0.189(7) -.0042(15) 0.019(9) 1.
O4 O2- 2 a 0.655(7) 0.772(7) 0.0580(16) 0.017(8) 1.
O5 O2- 2 a 0.978(7) 0.231(7) 0.1149(14) 0.015(8) 1.
O6 O2- 2 a 0.408(8) 0.954(8) 0.1197(15) 0.024(10) 1.
O7 O2- 2 a 0.687(8) 0.687(8) 0.1471(16) 0.025(10) 1.
O8 O2- 2 a 0.078(8) 0.623(8) 0.2242(15) 0.021(10) 1.
O9 O2- 2 a 0.215(9) 0.243(8) 0.2261(16) 0.028(10) 1.
O10 O2- 2 a -.227(8) 0.197(8) 0.2743(15) 0.023(9) 1.
O11 O2- 2 a 0.277(7) 0.519(7) 0.3066(13) 0.012(8) 1.
O12 O2- 2 a 0.131(9) 0.899(9) 0.3397(16) 0.035(12) 1.
O13 O2- 2 a 0.524(7) 0.803(7) 0.3855(14) 0.018(9) 1.
O14 O2- 2 a -.003(7) 0.441(7) 0.3913(13) 0.011(8) 1.
#End of TTdata_62650-ICSD