
#(C) 2020 by FIZ Karlsruhe - Leibniz Institute for Information Infrastructure.  All rights reserved.
data_64910-ICSD
_database_code_ICSD 64910
_audit_creation_date 1998-06-26
_audit_update_record 2015-02-01
_chemical_name_common 'Lead tetragermanate - alpha'
_chemical_formula_structural 'Pb (Ge4 O9)'
_chemical_formula_sum 'Ge4 O9 Pb1'
_chemical_name_structure_type BaGe4O9
_exptl_crystal_density_diffrn 5.95
_citation_title 'The crystal structure of lead alpha-tetragermanate'
loop_
_citation_id
_citation_journal_full
_citation_year
_citation_journal_volume
_citation_page_first
_citation_page_last
_citation_journal_id_ASTM
primary 'Zhurnal Neorganicheskoi Khimii' 1981 26 583 587 ZNOKAQ
loop_
_citation_author_citation_id
_citation_author_name
primary 'Shashkov, A.Yu.'
primary 'Efremov, V.A.'
primary 'Matsichek, I.'
primary 'Rannev, N.V.'
primary 'Venevtsev, Yu.N.'
primary 'Trunov, V.K.'
_cell_length_a 11.420(2)
_cell_length_b 11.420(2)
_cell_length_c 4.753(1)
_cell_angle_alpha 90.
_cell_angle_beta 90.
_cell_angle_gamma 120.
_cell_volume 536.82
_cell_formula_units_Z 3
_space_group_name_H-M_alt 'P 3 2 1'
_space_group_IT_number 150
loop_
_space_group_symop_id
_space_group_symop_operation_xyz
1 'x-y, -y, -z'
2 '-x, -x+y, -z'
3 'y, x, -z'
4 '-x+y, -x, z'
5 '-y, x-y, z'
6 'x, y, z'
loop_
_atom_type_symbol
_atom_type_oxidation_number
Pb2+ 2
Ge4+ 4
O2- -2
loop_
_atom_site_label
_atom_site_type_symbol
_atom_site_symmetry_multiplicity
_atom_site_Wyckoff_symbol
_atom_site_fract_x
_atom_site_fract_y
_atom_site_fract_z
_atom_site_B_iso_or_equiv
_atom_site_occupancy
Pb1 Pb2+ 3 e 0.67312(7) 0 0 2.19 1.
Ge1 Ge4+ 6 g 0.14914(9) 0.49011(9) 0.3979(2) 0.45 1.
Ge2 Ge4+ 3 f 0.17988(13) 0 0.5 0.37 1.
Ge3 Ge4+ 2 d 0.33333 0.66667 0.8883(4) 0.35 1.
Ge4 Ge4+ 1 a 0 0 0 0.58 1.
O1 O2- 6 g 0.0933(6) 0.1548(7) 0.762(2) 0.94 1.
O2 O2- 6 g 0.1082(7) 0.3249(7) 0.295(1) 0.61 1.
O3 O2- 6 g 0.2631(8) 0.5120(7) 0.664(1) 0.74 1.
O4 O2- 6 g 0.1807(7) 0.6018(7) 0.118(1) 0.89 1.
O5 O2- 3 f 0.4882(10) 0 0.5 1.96 1.
#End of TTdata_64910-ICSD