
#(C) 2020 by FIZ Karlsruhe - Leibniz Institute for Information Infrastructure.  All rights reserved.
data_65740-ICSD
_database_code_ICSD 65740
_audit_creation_date 1990-06-08
_chemical_name_common 'Potassium zinc catena-digermanate'
_chemical_formula_structural 'K2 Zn (Ge2 O6)'
_chemical_formula_sum 'Ge2 K2 O6 Zn1'
_exptl_crystal_density_diffrn 3.8
_citation_title
'The crystal structure and ionic conductivity properties of K2 Zn Ge2 O6'
loop_
_citation_id
_citation_journal_full
_citation_year
_citation_journal_volume
_citation_page_first
_citation_page_last
_citation_journal_id_ASTM
primary 'Acta Chemica Scandinavica' 1989 43 11 14 ACHSE7
loop_
_citation_author_citation_id
_citation_author_name
primary 'Grins, J.'
primary 'Werner, P.E.'
_cell_length_a 9.7904(4)
_cell_length_b 6.3612(2)
_cell_length_c 10.8078(4)
_cell_angle_alpha 90.
_cell_angle_beta 90.
_cell_angle_gamma 90.
_cell_volume 673.1
_cell_formula_units_Z 4
_space_group_name_H-M_alt 'C 2 2 21'
_space_group_IT_number 20
loop_
_space_group_symop_id
_space_group_symop_operation_xyz
1 '-x, y, -z+1/2'
2 '-x, -y, z+1/2'
3 'x, -y, -z'
4 'x, y, z'
5 '-x+1/2, y+1/2, -z+1/2'
6 '-x+1/2, -y+1/2, z+1/2'
7 'x+1/2, -y+1/2, -z'
8 'x+1/2, y+1/2, z'
loop_
_atom_type_symbol
_atom_type_oxidation_number
Zn2+ 2
Ge4+ 4
K1+ 1
O2- -2
loop_
_atom_site_label
_atom_site_type_symbol
_atom_site_symmetry_multiplicity
_atom_site_Wyckoff_symbol
_atom_site_fract_x
_atom_site_fract_y
_atom_site_fract_z
_atom_site_B_iso_or_equiv
_atom_site_occupancy
Zn1 Zn2+ 4 a 0.6984(6) 0 0 . 1.
Ge1 Ge4+ 8 c 0.4884(4) 0.6603(5) 0.6101(3) . 1.
K1 K1+ 8 c 0.3276(7) 0.1103(11) 0.6789(6) . 1.
O1 O2- 8 c 0.3226(17) 0.2888(26) 0.4224(15) . 1.
O2 O2- 8 c 0.5931(17) 0.8824(26) 0.6272(15) . 1.
O3 O2- 4 a 0.9299(23) 0 0 . 1.
O4 O2- 4 b 0 0.0016(39) 0.25 . 1.
#End of TTdata_65740-ICSD