
#(C) 2020 by FIZ Karlsruhe - Leibniz Institute for Information Infrastructure.  All rights reserved.
data_65763-ICSD
_database_code_ICSD 65763
_audit_creation_date 1990-06-08
_audit_update_record 2010-02-01
_chemical_name_common 'Pentacalcium fluoride tris(borate)'
_chemical_formula_structural 'Ca5 F (B O3)3'
_chemical_formula_sum 'B3 Ca5 F1 O9'
_chemical_name_structure_type Ca5(BO3)3F
_exptl_crystal_density_diffrn 2.9
_diffrn_ambient_temperature 296.
_citation_title 'Structure of calcium fluoroborate, Ca5 (B O3)3 F'
loop_
_citation_id
_citation_journal_full
_citation_year
_citation_journal_volume
_citation_page_first
_citation_page_last
_citation_journal_id_ASTM
primary 'Acta Crystallographica, Section C: Crystal Structure Communications'
1989 45 1861 1863 ACSCEE
loop_
_citation_author_citation_id
_citation_author_name
primary 'Lei, S.'
primary 'Huang, Q.'
primary 'Zheng, Y.'
primary 'Jiang, A.'
primary 'Chen, C.'
_cell_length_a 8.129(3)
_cell_length_b 16.051(5)
_cell_length_c 3.5390(4)
_cell_angle_alpha 90.
_cell_angle_beta 100.94(6)
_cell_angle_gamma 90.
_cell_volume 453.37
_cell_formula_units_Z 2
_space_group_name_H-M_alt 'C 1 m 1'
_space_group_IT_number 8
loop_
_space_group_symop_id
_space_group_symop_operation_xyz
1 'x, -y, z'
2 'x, y, z'
3 'x+1/2, -y+1/2, z'
4 'x+1/2, y+1/2, z'
loop_
_atom_type_symbol
_atom_type_oxidation_number
Ca2+ 2
F1- -1
O2- -2
B3+ 3
loop_
_atom_site_label
_atom_site_type_symbol
_atom_site_symmetry_multiplicity
_atom_site_Wyckoff_symbol
_atom_site_fract_x
_atom_site_fract_y
_atom_site_fract_z
_atom_site_B_iso_or_equiv
_atom_site_occupancy
Ca1 Ca2+ 4 b 0.6691 0.11750(8) 0.7352 . 1.
Ca2 Ca2+ 4 b 0.0473(2) 0.1782(1) 0.3973(5) . 1.
Ca3 Ca2+ 2 a 0.2816(3) 0 0.0310(7) . 1.
F1 F1- 2 a 0.4864(8) 0 -.357(2) . 1.
O1 O2- 4 b 0.8376(7) 0.0737(3) 0.309(2) . 1.
O2 O2- 4 b 0.0186(6) 0.3278(4) 0.188(2) . 1.
O3 O2- 2 a 0.099(1) 0 0.450(2) . 1.
O4 O2- 4 b 0.8457(7) 0.2293(3) 0.796(2) . 1.
O5 O2- 4 b 0.2250(6) 0.1439(3) -.024(2) . 1.
B1 B3+ 4 b 0.8616(9) 0.3043(5) -.016(2) . 1.
B2 B3+ 2 a 0.926(1) 0 0.357(3) . 1.
loop_
_atom_site_aniso_label
_atom_site_aniso_type_symbol
_atom_site_aniso_B_11
_atom_site_aniso_B_22
_atom_site_aniso_B_33
_atom_site_aniso_B_12
_atom_site_aniso_B_13
_atom_site_aniso_B_23
Ca1 Ca2+ 0.53(3) 0.31(3) 0.60(4) -.04(4) 0.08(3) 0.04(4)
Ca2 Ca2+ 0.67(4) 0.95(4) 0.57(4) 0.18(4) 0.15(3) 0.12(4)
Ca3 Ca2+ 0.42(5) 0.57(6) 0.54(6) 0 0.04(5) 0
F1 F1- 0.8(2) 0.4(2) 1.1(2) 0 0.2(2) 0
O1 O2- 1.5(2) 0.4(1) 1.0(2) 0.7(1) 0.1(2) 0.3(2)
O2 O2- 0.5(1) 0.4(2) 0.9(2) -.4(1) 0.0(1) -.1(2)
O3 O2- 0.4(2) 2.8(4) 0.7(3) 0 0.2(2) 0
O4 O2- 1.4(2) 0.5(2) 1.1(2) -.2(2) 0.4(2) -.3(2)
O5 O2- 0.6(1) 0.8(2) 0.8(2) -.3(1) 0.1(1) -.2(2)
B1 B3+ 0.5(2) 0.6(2) 0.4(2) -.1(2) 0.0(2) 0.1(2)
B2 B3+ 0.4(8) 0.2(3) 0.5(3) 0 -.1(3) 0
#End of TTdata_65763-ICSD