
#(C) 2020 by FIZ Karlsruhe - Leibniz Institute for Information Infrastructure.  All rights reserved.
data_66643-ICSD
_database_code_ICSD 66643
_audit_creation_date 1994-01-19
_chemical_name_common 'Hydrogen iodate'
_chemical_formula_structural 'H (I O3)'
_chemical_formula_sum 'H1 I1 O3'
_chemical_name_structure_type HIO3
_exptl_crystal_density_diffrn 4.64
_diffrn_ambient_temperature 295.
_citation_title

;
A single-crystal neutron difraction study of HIO3 at 295 and 30 K and of DIO3
at 295 K
;
loop_
_citation_id
_citation_journal_full
_citation_year
_citation_journal_volume
_citation_page_first
_citation_page_last
_citation_journal_id_ASTM
primary 'Acta Chemica Scandinavica' 1992 46 1146 1148 ACHSE7
loop_
_citation_author_citation_id
_citation_author_name
primary 'Stahl, K.'
primary 'Szafranski, M.'
_cell_length_a 5.5400(2)
_cell_length_b 5.8768(3)
_cell_length_c 7.7370(4)
_cell_angle_alpha 90.
_cell_angle_beta 90.
_cell_angle_gamma 90.
_cell_volume 251.9
_cell_formula_units_Z 4
_space_group_name_H-M_alt 'P 21 21 21'
_space_group_IT_number 19
loop_
_space_group_symop_id
_space_group_symop_operation_xyz
1 '-x, y+1/2, -z+1/2'
2 'x+1/2, -y+1/2, -z'
3 '-x+1/2, -y, z+1/2'
4 'x, y, z'
loop_
_atom_type_symbol
_atom_type_oxidation_number
I5+ 5
O2- -2
H1+ 1
loop_
_atom_site_label
_atom_site_type_symbol
_atom_site_symmetry_multiplicity
_atom_site_Wyckoff_symbol
_atom_site_fract_x
_atom_site_fract_y
_atom_site_fract_z
_atom_site_B_iso_or_equiv
_atom_site_occupancy
I1 I5+ 4 a 0.20395(19) -.08538(17) 0.15737(12) 1.13(2) 1.
O1 O2- 4 a -.06832(20) 0.02425(17) 0.25690(13) 1.56(2) 1.
O2 O2- 4 a 0.33409(21) 0.19685(20) 0.08399(13) 1.79(2) 1.
O3 O2- 4 a 0.09469(20) -.15837(19) -.05215(12) 1.73(2) 1.
H1 H1+ 4 a 0.23752(46) 0.32350(37) 0.13452(31) 3.07(5) 1.
#End of TTdata_66643-ICSD