
#(C) 2020 by FIZ Karlsruhe - Leibniz Institute for Information Infrastructure.  All rights reserved.
data_68431-ICSD
_database_code_ICSD 68431
_audit_creation_date 1991-07-10
_chemical_name_common 'Bismuth germanium oxide (24/2/40)'
_chemical_formula_structural 'Bi24 Ge2 O40'
_chemical_formula_sum 'Bi24 Ge2 O40'
_chemical_name_structure_type Sillenite#Bi12SiO20
_exptl_crystal_density_diffrn 9.21
_citation_title

;
Solution synthesis and characterization of sillenite phases, Bi24 M2 O40 (M=
Si, Ge, V, As, P)
;
loop_
_citation_id
_citation_journal_full
_citation_year
_citation_journal_volume
_citation_page_first
_citation_page_last
_citation_journal_id_ASTM
primary 'Solid State Ionics' 1989 32 678 690 SSIOD3
loop_
_citation_author_citation_id
_citation_author_name
primary 'Horowitz, H.S.'
primary 'Jacobson, A.J.'
primary 'Newsam, J.M.'
primary 'Lewandowski, J.T.'
primary 'Leonowicz, M.E.'
_cell_length_a 10.1517(5)
_cell_length_b 10.1517(5)
_cell_length_c 10.1517(5)
_cell_angle_alpha 90.
_cell_angle_beta 90.
_cell_angle_gamma 90.
_cell_volume 1046.2
_cell_formula_units_Z 1
_space_group_name_H-M_alt 'I 2 3'
_space_group_IT_number 197
loop_
_space_group_symop_id
_space_group_symop_operation_xyz
1 '-z, -x, y'
2 '-y, -z, x'
3 '-x, -y, z'
4 '-z, x, -y'
5 '-y, z, -x'
6 '-x, y, -z'
7 'z, -x, -y'
8 'y, -z, -x'
9 'x, -y, -z'
10 'z, x, y'
11 'y, z, x'
12 'x, y, z'
13 '-z+1/2, -x+1/2, y+1/2'
14 '-y+1/2, -z+1/2, x+1/2'
15 '-x+1/2, -y+1/2, z+1/2'
16 '-z+1/2, x+1/2, -y+1/2'
17 '-y+1/2, z+1/2, -x+1/2'
18 '-x+1/2, y+1/2, -z+1/2'
19 'z+1/2, -x+1/2, -y+1/2'
20 'y+1/2, -z+1/2, -x+1/2'
21 'x+1/2, -y+1/2, -z+1/2'
22 'z+1/2, x+1/2, y+1/2'
23 'y+1/2, z+1/2, x+1/2'
24 'x+1/2, y+1/2, z+1/2'
loop_
_atom_type_symbol
_atom_type_oxidation_number
Bi3+ 3
Ge4+ 4
O2- -2
loop_
_atom_site_label
_atom_site_type_symbol
_atom_site_symmetry_multiplicity
_atom_site_Wyckoff_symbol
_atom_site_fract_x
_atom_site_fract_y
_atom_site_fract_z
_atom_site_B_iso_or_equiv
_atom_site_occupancy
Bi1 Bi3+ 24 f 0.1763(2) 0.3185(2) 0.0156(2) 1.05(3) 1.
Ge1 Ge4+ 2 a 0 0 0 0.9(2) 1.
O1 O2- 24 f 0.1355(3) 0.2489(4) 0.4854(3) 1.15(5) 1.
O2 O2- 8 c 0.1943(4) 0.1943(4) 0.1943(4) 1.5(1) 1.
O3 O2- 8 c 0.8995(4) 0.8995(4) 0.8995(4) 1.6(1) 1.
#End of TTdata_68431-ICSD