
#(C) 2020 by FIZ Karlsruhe - Leibniz Institute for Information Infrastructure.  All rights reserved.
data_68465-ICSD
_database_code_ICSD 68465
_audit_creation_date 1991-07-10
_chemical_name_common 'Lithium gallium sulfide'
_chemical_formula_structural 'Li Ga S2'
_chemical_formula_sum 'Ga1 Li1 S2'
_chemical_name_structure_type NaFeO2(beta)
_exptl_crystal_density_diffrn 2.92
_citation_title 'Structure of Lithium Gallium Sulfide, LiGaS2'
loop_
_citation_id
_citation_journal_full
_citation_year
_citation_journal_volume
_citation_page_first
_citation_page_last
_citation_journal_id_ASTM
primary 'Acta Crystallographica, Section C: Crystal Structure Communications'
1990 46 2017 2019 ACSCEE
loop_
_citation_author_citation_id
_citation_author_name
primary 'Leal-Gonzalez, J.'
primary 'Melibary, S.S.'
primary 'Smith, A.J.'
_cell_length_a 6.519(6)
_cell_length_b 7.872(7)
_cell_length_c 6.238(4)
_cell_angle_alpha 90.
_cell_angle_beta 90.
_cell_angle_gamma 90.
_cell_volume 320.12
_cell_formula_units_Z 4
_space_group_name_H-M_alt 'P n a 21'
_space_group_IT_number 33
loop_
_space_group_symop_id
_space_group_symop_operation_xyz
1 'x+1/2, -y+1/2, z'
2 '-x+1/2, y+1/2, z+1/2'
3 '-x, -y, z+1/2'
4 'x, y, z'
loop_
_atom_type_symbol
_atom_type_oxidation_number
Li1+ 1
Ga3+ 3
S2- -2
loop_
_atom_site_label
_atom_site_type_symbol
_atom_site_symmetry_multiplicity
_atom_site_Wyckoff_symbol
_atom_site_fract_x
_atom_site_fract_y
_atom_site_fract_z
_atom_site_B_iso_or_equiv
_atom_site_occupancy
Li1 Li1+ 4 a 0.4178(47) 0.1445(54) 0.126(16) 1.30(41) 1.
Ga1 Ga3+ 4 a 0.0736(3) 0.1271(4) 0.6135 . 1.
S1 S2- 4 a 0.0951(6) 0.6351(12) 0.0065(8) . 1.
S2 S2- 4 a 0.0659(7) 0.1153(11) 0.9879(10) . 1.
#End of TTdata_68465-ICSD