
#(C) 2020 by FIZ Karlsruhe - Leibniz Institute for Information Infrastructure.  All rights reserved.
data_69018-ICSD
_database_code_ICSD 69018
_audit_creation_date 1992-01-20
_chemical_name_common 'Dipotassium germanium zinc oxide'
_chemical_formula_structural 'K2 Ge Zn O4'
_chemical_formula_sum 'Ge1 K2 O4 Zn1'
_chemical_name_structure_type Na2BeSiO4
_exptl_crystal_density_diffrn 3.84
_citation_title

;
A Rietveld refinement of the structure of K4/2ZnGeO4 and its relationship to a
revised model of the KGaO2 structure type
;
loop_
_citation_id
_citation_journal_full
_citation_year
_citation_journal_volume
_citation_page_first
_citation_page_last
_citation_journal_id_ASTM
primary 'Journal of Solid State Chemistry' 1990 87 114 123 JSSCBI
loop_
_citation_author_citation_id
_citation_author_name
primary 'Grins, J.'
primary 'Louer, D.'
_cell_length_a 11.0769(10)
_cell_length_b 5.5216(5)
_cell_length_c 15.8465(13)
_cell_angle_alpha 90.
_cell_angle_beta 90.
_cell_angle_gamma 90.
_cell_volume 969.21
_cell_formula_units_Z 8
_space_group_name_H-M_alt 'P c a 21'
_space_group_IT_number 29
loop_
_space_group_symop_id
_space_group_symop_operation_xyz
1 'x+1/2, -y, z'
2 '-x+1/2, y, z+1/2'
3 '-x, -y, z+1/2'
4 'x, y, z'
loop_
_atom_type_symbol
_atom_type_oxidation_number
Zn2+ 2
Ge4+ 4
K1+ 1
O2- -2
loop_
_atom_site_label
_atom_site_type_symbol
_atom_site_symmetry_multiplicity
_atom_site_Wyckoff_symbol
_atom_site_fract_x
_atom_site_fract_y
_atom_site_fract_z
_atom_site_B_iso_or_equiv
_atom_site_occupancy
Zn1 Zn2+ 4 a 0.2370(6) 0.0340(12) 0.4358(6) 0.47(6) 1.
Zn2 Zn2+ 4 a 0.0093(8) 0.5127(14) 0.6914(6) 0.47(6) 1.
Ge1 Ge4+ 4 a 0.0093(8) 0.0127(14) 0.8086(6) 0.47(6) 1.
Ge2 Ge4+ 4 a 0.2370(6) 0.5340(12) 0.0642(6) 0.47(6) 1.
K1 K1+ 4 a 0.0160(12) 0.4971(34) 0.9349(10) 0.8(1) 1.
K2 K1+ 4 a 0.0160(12) 0.9971(34) 0.5651(10) 0.8(1) 1.
K3 K1+ 4 a 0.2338(14) 0.5524(20) 0.3197(10) 0.8(1) 1.
K4 K1+ 4 a 0.2338(14) 0.0524(20) 0.1803(10) 0.8(1) 1.
O1 O2- 4 a 0.1617(32) 0.0850(58) 0.8466(22) 1.1(2) 1.
O2 O2- 4 a 0.1617(32) 0.5850(58) 0.6534(22) 1.1(2) 1.
O3 O2- 4 a 0.1942(32) 0.3322(62) 0.4836(20) 1.1(2) 1.
O4 O2- 4 a 0.1942(32) 0.8322(62) 0.0164(20) 1.1(2) 1.
O5 O2- 4 a 0.0946(34) 0.8987(64) 0.4008(24) 1.1(2) 1.
O6 O2- 4 a 0.0946(34) 0.3987(64) 0.0992(24) 1.1(2) 1.
O7 O2- 4 a 0.0197(30) 0.8272(66) 0.2078(26) 1.1(2) 1.
O8 O2- 4 a 0.0197(30) 0.3272(66) 0.2922(26) 1.1(2) 1.
#End of TTdata_69018-ICSD