
#(C) 2020 by FIZ Karlsruhe - Leibniz Institute for Information Infrastructure.  All rights reserved.
data_69319-ICSD
_database_code_ICSD 69319
_audit_creation_date 1992-08-20
_audit_update_record 2012-02-01
_chemical_name_common 'Barium diborate - beta'
_chemical_formula_structural 'Ba (B2 O4)'
_chemical_formula_sum 'B2 Ba1 O4'
_chemical_name_structure_type BaB2O4(R3c)
_exptl_crystal_density_diffrn 3.85
_citation_title 'Structure refinement of beta-Ba B2 O4'
loop_
_citation_id
_citation_journal_full
_citation_year
_citation_journal_volume
_citation_page_first
_citation_page_last
_citation_journal_id_ASTM
primary

;
Report of the Research Laboratory of Engineering Materials, Tokyo Institute of
Technology
; 1990 15 1 11 RRLTDF
loop_
_citation_author_citation_id
_citation_author_name
primary 'Ito, K.'
primary 'Marumo, F.'
primary 'Ohgaki, M.'
primary 'Tanaka, K.'
_cell_length_a 12.5316(3)
_cell_length_b 12.5316(3)
_cell_length_c 12.7285(9)
_cell_angle_alpha 90.
_cell_angle_beta 90.
_cell_angle_gamma 120.
_cell_volume 1731.1
_cell_formula_units_Z 18
_space_group_name_H-M_alt 'R 3 c H'
_space_group_IT_number 161
loop_
_space_group_symop_id
_space_group_symop_operation_xyz
1 '-x+y, y, z+1/2'
2 'x, x-y, z+1/2'
3 '-y, -x, z+1/2'
4 '-x+y, -x, z'
5 '-y, x-y, z'
6 'x, y, z'
7 '-x+y+2/3, y+1/3, z+5/6'
8 'x+2/3, x-y+1/3, z+5/6'
9 '-y+2/3, -x+1/3, z+5/6'
10 '-x+y+2/3, -x+1/3, z+1/3'
11 '-y+2/3, x-y+1/3, z+1/3'
12 'x+2/3, y+1/3, z+1/3'
13 '-x+y+1/3, y+2/3, z+1/6'
14 'x+1/3, x-y+2/3, z+1/6'
15 '-y+1/3, -x+2/3, z+1/6'
16 '-x+y+1/3, -x+2/3, z+2/3'
17 '-y+1/3, x-y+2/3, z+2/3'
18 'x+1/3, y+2/3, z+2/3'
loop_
_atom_type_symbol
_atom_type_oxidation_number
Ba2+ 2
B3+ 3
O2- -2
B3+ 3
O2- -2
loop_
_atom_site_label
_atom_site_type_symbol
_atom_site_symmetry_multiplicity
_atom_site_Wyckoff_symbol
_atom_site_fract_x
_atom_site_fract_y
_atom_site_fract_z
_atom_site_B_iso_or_equiv
_atom_site_occupancy
Ba1 Ba2+ 18 b 0.69413(1) 0.66972(1) 0.54667 . 1.
B1 B3+ 18 b 0.70914(16) 0.46300(17) 0.33700(18) . 1.
O1 O2- 18 b 0.58392(13) 0.37439(13) 0.33410(17) . 1.
O2 O2- 18 b 0.75251(14) 0.58321(13) 0.34311(16) . 1.
B2 B3+ 18 b 0.76830(16) 0.45688(17) 0.57530(17) . 1.
O3 O2- 18 b 0.64525(13) 0.42982(13) 0.57763(17) . 1.
O4 O2- 18 b 0.85911(13) 0.57157(13) 0.56835(13) . 1.
loop_
_atom_site_aniso_label
_atom_site_aniso_type_symbol
_atom_site_aniso_U_11
_atom_site_aniso_U_22
_atom_site_aniso_U_33
_atom_site_aniso_U_12
_atom_site_aniso_U_13
_atom_site_aniso_U_23
Ba1 Ba2+ 0.00880(3) 0.00888(2) 0.01741(2) 0.00427(3) -.00068(5) -.00054(2)
B1 B3+ 0.00908(48) 0.00962(50) 0.02028(74) 0.00351(41) -.00158(47) 0.00302(59)
O1 O2- 0.00916(37) 0.01038(39) 0.04525(96) 0.00545(31) -.00106(48) -.00154(48)
O2 O2- 0.01616(47) 0.01185(41) 0.03130(76) 0.00790(37) -.00256(49) 0.00259(45)
B2 B3+ 0.00837(46) 0.00999(48) 0.01708(65) 0.00330(39) -.00106(45) -.00149(46)
O3 O2- 0.00916(38) 0.00958(38) 0.04268(91) 0.00508(32) -.00071(48) -.00147(48)
O4 O2- 0.01362(39) 0.01047(37) 0.02255(57) 0.00318(33) -.00164(38) 0.00060(38)
#End of TTdata_69319-ICSD