
#(C) 2020 by FIZ Karlsruhe - Leibniz Institute for Information Infrastructure.  All rights reserved.
data_69387-ICSD
_database_code_ICSD 69387
_audit_creation_date 1992-08-20
_audit_update_record 2007-08-01
_chemical_name_common 'Dicalcium zinc digermanate - HT'
_chemical_formula_structural 'Ca2 Zn (Ge2 O7)'
_chemical_formula_sum 'Ca2 Ge2 O7 Zn1'
_chemical_name_structure_type Melilite#Ca2MgSi2O7
_exptl_crystal_density_diffrn 4.08
_citation_title

;
Layer topology, stacking variation and site distortion in melilite-related
compounds in the system CaO-ZnO-GeO2-SiO2
;
loop_
_citation_id
_citation_journal_full
_citation_year
_citation_journal_volume
_citation_page_first
_citation_page_last
_citation_journal_id_ASTM
primary 'American Mineralogist' 1990 75 847 858 AMMIAY
loop_
_citation_author_citation_id
_citation_author_name
primary 'Armbruster, T.'
primary 'Roethlisberger, F.'
primary 'Seifert, F.'
_cell_length_a 7.950(1)
_cell_length_b 7.950(1)
_cell_length_c 5.186(1)
_cell_angle_alpha 90.
_cell_angle_beta 90.
_cell_angle_gamma 90.
_cell_volume 327.77
_cell_formula_units_Z 2
_space_group_name_H-M_alt 'P -4 21 m'
_space_group_IT_number 113
loop_
_space_group_symop_id
_space_group_symop_operation_xyz
1 '-y+1/2, -x+1/2, z'
2 'y, -x, -z'
3 'y+1/2, x+1/2, z'
4 '-y, x, -z'
5 'x+1/2, -y+1/2, -z'
6 '-x, -y, z'
7 '-x+1/2, y+1/2, -z'
8 'x, y, z'
loop_
_atom_type_symbol
_atom_type_oxidation_number
Ca2+ 2
Zn2+ 2
Ge4+ 4
O2- -2
loop_
_atom_site_label
_atom_site_type_symbol
_atom_site_symmetry_multiplicity
_atom_site_Wyckoff_symbol
_atom_site_fract_x
_atom_site_fract_y
_atom_site_fract_z
_atom_site_B_iso_or_equiv
_atom_site_occupancy
Ca1 Ca2+ 4 e 0.3320(2) 0.1680(2) 0.5038(6) . 1.
Zn1 Zn2+ 2 a 0 0 0 . 1.
Ge1 Ge4+ 4 e 0.14206(9) 0.35794(9) 0.9531(2) . 1.
O1 O2- 2 c 0.5 0 0.181(3) . 1.
O2 O2- 4 e 0.1400(8) 0.3600(8) 0.277(2) . 1.
O3 O2- 8 f 0.088(2) 0.179(1) 0.783(2) . 1.
loop_
_atom_site_aniso_label
_atom_site_aniso_type_symbol
_atom_site_aniso_U_11
_atom_site_aniso_U_22
_atom_site_aniso_U_33
_atom_site_aniso_U_12
_atom_site_aniso_U_13
_atom_site_aniso_U_23
Ca1 Ca2+ 0.049(1) 0.049(1) 0.0141(8) 0.038(1) 0.0001(5) -.0001(5)
Zn1 Zn2+ 0.0196(4) 0.0196(4) 0.0092(6) 0 0 0
Ge1 Ge4+ 0.0152(2) 0.0152(2) 0.0109(4) 0.0002(3) 0.0040(2) -.0040(2)
O1 O2- 0.11(2) 0.11(2) 0.006(4) -.09(2) 0 0
O2 O2- 0.042(3) 0.042(3) 0.012(3) 0.025(5) -.002(2) 0.002(2)
O3 O2- 0.20(1) 0.042(4) 0.031(4) -.075(7) 0.061(6) -.026(4)
#End of TTdata_69387-ICSD