
#(C) 2020 by FIZ Karlsruhe - Leibniz Institute for Information Infrastructure.  All rights reserved.
data_71007-ICSD
_database_code_ICSD 71007
_audit_creation_date 1993-01-06
_chemical_name_common 'Silver gallium telluride'
_chemical_formula_structural 'Ag Ga Te2'
_chemical_formula_sum 'Ag1 Ga1 Te2'
_chemical_name_structure_type Chalcopyrite#CuFeS2
_exptl_crystal_density_diffrn 6.07
_citation_title

;
Systeme Ag2Te-Ga2Te3. Phases intermediaires. Determinations structurelles.
Diagramme de phase
;
loop_
_citation_id
_citation_journal_full
_citation_year
_citation_journal_volume
_citation_page_first
_citation_page_last
_citation_journal_id_ASTM
primary 'Materials Research Bulletin' 1988 23 217 225 MRBUAC
loop_
_citation_author_citation_id
_citation_author_name
primary 'Guittard, M.'
primary 'Rivet, J.'
primary 'Mazurier, A.'
primary 'Jaulmes, S.'
primary 'Fourcroy, P.H.'
_cell_length_a 6.30(2)
_cell_length_b 6.30(2)
_cell_length_c 11.94(7)
_cell_angle_alpha 90.
_cell_angle_beta 90.
_cell_angle_gamma 90.
_cell_volume 473.9
_cell_formula_units_Z 4
_space_group_name_H-M_alt 'I -4 2 d'
_space_group_IT_number 122
loop_
_space_group_symop_id
_space_group_symop_operation_xyz
1 '-y, -x+1/2, z+1/4'
2 'y, -x, -z'
3 'y, x+1/2, z+1/4'
4 '-y, x, -z'
5 'x, -y+1/2, -z+1/4'
6 '-x, -y, z'
7 '-x, y+1/2, -z+1/4'
8 'x, y, z'
9 '-y+1/2, -x, z+3/4'
10 'y+1/2, -x+1/2, -z+1/2'
11 'y+1/2, x, z+3/4'
12 '-y+1/2, x+1/2, -z+1/2'
13 'x+1/2, -y, -z+3/4'
14 '-x+1/2, -y+1/2, z+1/2'
15 '-x+1/2, y, -z+3/4'
16 'x+1/2, y+1/2, z+1/2'
loop_
_atom_type_symbol
_atom_type_oxidation_number
Ag1+ 1
Ga3+ 3
Te2- -2
loop_
_atom_site_label
_atom_site_type_symbol
_atom_site_symmetry_multiplicity
_atom_site_Wyckoff_symbol
_atom_site_fract_x
_atom_site_fract_y
_atom_site_fract_z
_atom_site_B_iso_or_equiv
_atom_site_occupancy
Ag1 Ag1+ 4 a 0 0 0 . 1.
Ga1 Ga3+ 4 b 0 0 0.5 . 1.
Te1 Te2- 8 d 0.2597 0.25 0.125 . 1.
#End of TTdata_71007-ICSD