
#(C) 2020 by FIZ Karlsruhe - Leibniz Institute for Information Infrastructure.  All rights reserved.
data_71871-ICSD
_database_code_ICSD 71871
_audit_creation_date 1993-08-22
_chemical_name_common 'Pentastrontium chloride tris(borate)'
_chemical_formula_structural 'Sr5 Cl (B O3)3'
_chemical_formula_sum 'B3 Cl1 O9 Sr5'
_chemical_name_structure_type Sr5Br(BO3)3
_exptl_crystal_density_diffrn 4.1
_diffrn_ambient_temperature 295.
_citation_title 'Structure of Sr5(BO3)3Cl'
loop_
_citation_id
_citation_journal_full
_citation_year
_citation_journal_volume
_citation_page_first
_citation_page_last
_citation_journal_id_ASTM
primary 'Acta Crystallographica, Section C: Crystal Structure Communications'
1992 48 1382 1386 ACSCEE
loop_
_citation_author_citation_id
_citation_author_name
primary 'Alekel, T.'
primary 'Keszler, D.A.'
_cell_length_a 10.000(2)
_cell_length_b 14.202(2)
_cell_length_c 7.421(1)
_cell_angle_alpha 90.
_cell_angle_beta 90.
_cell_angle_gamma 90.
_cell_volume 1053.93
_cell_formula_units_Z 4
_space_group_name_H-M_alt 'C 2 2 21'
_space_group_IT_number 20
loop_
_space_group_symop_id
_space_group_symop_operation_xyz
1 '-x, y, -z+1/2'
2 '-x, -y, z+1/2'
3 'x, -y, -z'
4 'x, y, z'
5 '-x+1/2, y+1/2, -z+1/2'
6 '-x+1/2, -y+1/2, z+1/2'
7 'x+1/2, -y+1/2, -z'
8 'x+1/2, y+1/2, z'
loop_
_atom_type_symbol
_atom_type_oxidation_number
Sr2+ 2
Cl1- -1
O2- -2
B3+ 3
loop_
_atom_site_label
_atom_site_type_symbol
_atom_site_symmetry_multiplicity
_atom_site_Wyckoff_symbol
_atom_site_fract_x
_atom_site_fract_y
_atom_site_fract_z
_atom_site_U_iso_or_equiv
_atom_site_occupancy
Sr1 Sr2+ 4 a 0.7605(2) 0 0 . 1.
Sr2 Sr2+ 8 c 0.1327(1) 0.87145(9) 0.9371(1) . 1.
Sr3 Sr2+ 4 b 0.5 0.8651(1) 0.75 . 1.
Sr4 Sr2+ 4 b 0.5 0.1385(1) 0.75 . 1.
Cl1 Cl1- 4 b 0 0.0532(3) 0.75 . 1.
O1 O2- 4 a 0.508(1) 0 0 . 1.
O2 O2- 8 c 0.6712(8) 0.8089(7) 0.009(1) . 1.
O3 O2- 8 c 0.3553(8) 0.8007(7) 0.986(1) . 1.
O4 O2- 8 c 0.6969(8) 0.0005(9) 0.337(1) . 1.
O5 O2- 8 c 0.8817(9) 0.8528(6) 0.883(2) . 1.
B1 B3+ 8 c 0.802(1) 0.789(1) 0.969(2) . 1.
B2 B3+ 4 a 0.374(2) 0 0 0.002(2) 1.
loop_
_atom_site_aniso_label
_atom_site_aniso_type_symbol
_atom_site_aniso_U_11
_atom_site_aniso_U_22
_atom_site_aniso_U_33
_atom_site_aniso_U_12
_atom_site_aniso_U_13
_atom_site_aniso_U_23
Sr1 Sr2+ 0.0061(7) 0.0086(7) 0.0078(6) 0 0 0.0005(8)
Sr2 Sr2+ 0.0070(5) 0.0074(5) 0.0093(4) 0.0003(5) 0.0007(4) 0.0004(5)
Sr3 Sr2+ 0.0090(7) 0.0067(7) 0.0058(7) 0 0.0009(6) 0
Sr4 Sr2+ 0.0083(7) 0.0090(8) 0.0067(7) 0 0.0000(6) 0
Cl1 Cl1- 0.012(2) 0.012(2) 0.008(2) 0 0.000(2) 0
O1 O2- 0.007(5) 0.008(5) 0.011(4) 0 0 0.003(6)
O2 O2- 0.007(4) 0.013(4) 0.009(4) 0.002(3) 0.004(4) 0.005(4)
O3 O2- 0.006(4) 0.011(4) 0.020(4) 0.004(3) 0.000(4) 0.003(4)
O4 O2- 0.014(4) 0.020(5) 0.015(4) 0.000(5) 0.004(3) 0.002(5)
O5 O2- 0.007(4) 0.008(5) 0.017(4) 0.004(4) 0.004(4) 0.002(3)
B1 B3+ 0.010(6) 0.006(6) 0.017(9) 0.004(5) 0.003(5) 0.005(5)
#End of TTdata_71871-ICSD