
#(C) 2020 by FIZ Karlsruhe - Leibniz Institute for Information Infrastructure.  All rights reserved.
data_71933-ICSD
_database_code_ICSD 71933
_audit_creation_date 1993-08-22
_audit_update_record 2006-04-01
_chemical_name_common 'Rubidium oxoantimony(V) germanate'
_chemical_formula_structural 'Rb (Sb O) (Ge O4)'
_chemical_formula_sum 'Ge1 O5 Rb1 Sb1'
_chemical_name_structure_type KTiOPO4#KFePO4F
_exptl_crystal_density_diffrn 4.97
_citation_title 'Structure cristalline de Rb Sb O Ge O4'
loop_
_citation_id
_citation_journal_full
_citation_year
_citation_journal_volume
_citation_page_first
_citation_page_last
_citation_journal_id_ASTM
primary

;
Comptes Rendus de l'Academie des Sciences, Serie II: Mecanique, Physique,
Chimie, Sciences de la Terre et de l'Univers
; 1992 315 305 310 CRAMED
loop_
_citation_author_citation_id
_citation_author_name
primary 'Favard, J.F.'
primary 'Verbaere, A.'
primary 'Piffard, Y.'
primary 'Tournoux, M.'
_cell_length_a 13.382(2)
_cell_length_b 6.702(1)
_cell_length_c 10.730(1)
_cell_angle_alpha 90.
_cell_angle_beta 90.
_cell_angle_gamma 90.
_cell_volume 962.33
_cell_formula_units_Z 8
_space_group_name_H-M_alt 'P n a 21'
_space_group_IT_number 33
loop_
_space_group_symop_id
_space_group_symop_operation_xyz
1 'x+1/2, -y+1/2, z'
2 '-x+1/2, y+1/2, z+1/2'
3 '-x, -y, z+1/2'
4 'x, y, z'
loop_
_atom_type_symbol
_atom_type_oxidation_number
Sb5+ 5
Rb1+ 1
Ge4+ 4
O2- -2
loop_
_atom_site_label
_atom_site_type_symbol
_atom_site_symmetry_multiplicity
_atom_site_Wyckoff_symbol
_atom_site_fract_x
_atom_site_fract_y
_atom_site_fract_z
_atom_site_B_iso_or_equiv
_atom_site_occupancy
Sb1 Sb5+ 4 a 0.38133(6) 0.5055(2) 0 . 1.
Sb2 Sb5+ 4 a 0.24609(9) 0.2556(2) 0.2456(2) . 1.
Rb1 Rb1+ 4 a 0.3871(2) 0.7805(3) 0.3297(3) . 1.
Rb2 Rb1+ 4 a 0.1105(1) 0.6994(3) 0.0708(2) . 1.
Ge1 Ge4+ 4 a 0.4987(2) 0.3179(2) 0.2468(3) 0.39(2) 1.
Ge2 Ge4+ 4 a 0.18044(9) 0.5087(4) 0.4962(3) 0.43(2) 1.
O1 O2- 4 a 0.4839(8) 0.491(2) 0.129(1) 0.6(2) 1.
O2 O2- 4 a 0.5060(9) 0.456(2) 0.386(1) 0.7(2) 1.
O3 O2- 4 a 0.3899(8) 0.173(2) 0.262(1) 0.6(2) 1.
O4 O2- 4 a 0.6020(8) 0.167(2) 0.226(1) 0.4(2) 1.
O5 O2- 4 a 0.1093(9) 0.299(2) 0.541(1) 0.8(2) 1.
O6 O2- 4 a 0.1045(9) 0.714(2) 0.469(1) 0.6(2) 1.
O7 O2- 4 a 0.2687(9) 0.559(2) 0.615(1) 0.9(2) 1.
O8 O2- 4 a 0.2608(8) 0.463(2) 0.376(1) 0.5(2) 1.
O9 O2- 4 a 0.2232(7) 0.959(1) 0.623(1) 0.1(2) 1.
O10 O2- 4 a 0.2186(9) 0.044(2) 0.369(1) 0.9(2) 1.
loop_
_atom_site_aniso_label
_atom_site_aniso_type_symbol
_atom_site_aniso_U_11
_atom_site_aniso_U_22
_atom_site_aniso_U_33
_atom_site_aniso_U_12
_atom_site_aniso_U_13
_atom_site_aniso_U_23
Sb1 Sb5+ 0.0043(3) 0.0033(3) 0.0041(3) 0.0020(8) 0.0005(7) 0.0012(4)
Sb2 Sb5+ 0.0040(3) 0.0041(3) 0.0035(3) -.0010(3) 0.0003(4) -.0007(4)
Rb1 Rb1+ 0.0201(8) 0.0103(8) 0.057(1) 0.0040(8) 0.009(1) 0.009(1)
Rb2 Rb1+ 0.0122(7) 0.0146(7) 0.035(1) 0.0049(7) 0.0026(9) 0.0062(8)
#End of TTdata_71933-ICSD