
#(C) 2020 by FIZ Karlsruhe - Leibniz Institute for Information Infrastructure.  All rights reserved.
data_73550-ICSD
_database_code_ICSD 73550
_audit_creation_date 1994-06-30
_chemical_name_common 'Hexapotassium digermanate'
_chemical_formula_structural 'K6 (Ge2 O7)'
_chemical_formula_sum 'Ge2 K6 O7'
_exptl_crystal_density_diffrn 3.01
_citation_title

;
Synthesis and structure of a potassium nitridoditungstenate (K6 W2 N4 O3), a
potassium digermanate (K6 Ge2 O7) and a rubidium digermanate (Rb6 Ge2 O7)
;
loop_
_citation_id
_citation_journal_full
_citation_year
_citation_journal_volume
_citation_page_first
_citation_page_last
_citation_journal_id_ASTM
primary 'Journal of Alloys and Compounds' 1993 200 211 215 JALCEU
loop_
_citation_author_citation_id
_citation_author_name
primary 'Monz, M.'
primary 'Ostermann, D.'
primary 'Jacobs, H.'
_cell_length_a 6.529(2)
_cell_length_b 9.079(4)
_cell_length_c 9.162(6)
_cell_angle_alpha 90.
_cell_angle_beta 91.85(4)
_cell_angle_gamma 90.
_cell_volume 542.81
_cell_formula_units_Z 2
_space_group_name_H-M_alt 'P 1 n 1'
_space_group_IT_number 7
loop_
_space_group_symop_id
_space_group_symop_operation_xyz
1 'x+1/2, -y, z+1/2'
2 'x, y, z'
loop_
_atom_type_symbol
_atom_type_oxidation_number
Ge4+ 4
K1+ 1
O2- -2
loop_
_atom_site_label
_atom_site_type_symbol
_atom_site_symmetry_multiplicity
_atom_site_Wyckoff_symbol
_atom_site_fract_x
_atom_site_fract_y
_atom_site_fract_z
_atom_site_B_iso_or_equiv
_atom_site_occupancy
Ge1 Ge4+ 2 a 0.95 0.38839(6) 0.629 1.005(7) 1.
Ge2 Ge4+ 2 a 0.05029(8) 0.11148(6) 0.37141(6) 0.945(7) 1.
K1 K1+ 2 a 0.2554(2) 0.2748(1) 0.0459(2) 1.73(2) 1.
K2 K1+ 2 a 0.2500(2) 0.7743(2) 0.4574(1) 1.74(2) 1.
K3 K1+ 2 a 0.3900(2) 0.4011(2) 0.4191(2) 2.42(2) 1.
K4 K1+ 2 a 0.1078(3) 0.9005(2) 0.0823(2) 2.77(3) 1.
K5 K1+ 2 a 0.8825(2) 0.4660(2) 0.2784(2) 1.99(2) 1.
K6 K1+ 2 a 0.6200(2) 0.9696(2) 0.2236(1) 2.32(2) 1.
O1 O2- 2 a 0.0574(8) 0.2496(7) 0.5104(7) 3.2(1) 1.
O2 O2- 2 a 0.0571(8) 0.3321(6) 0.7922(6) 2.59(9) 1.
O3 O2- 2 a 0.9578(8) 0.1677(5) 0.2006(4) 1.86(7) 1.
O4 O2- 2 a 0.6909(8) 0.3966(6) 0.6103(7) 3.5(1) 1.
O5 O2- 2 a 0.3139(7) 0.0753(6) 0.3562(6) 2.9(1) 1.
O6 O2- 2 a 0.5747(7) 0.4584(5) 0.0679(6) 2.11(8) 1.
O7 O2- 2 a 0.4266(7) 0.0436(5) 0.9394(5) 2.09(8) 1.
#End of TTdata_73550-ICSD