
#(C) 2020 by FIZ Karlsruhe - Leibniz Institute for Information Infrastructure.  All rights reserved.
data_73613-ICSD
_database_code_ICSD 73613
_audit_creation_date 1994-06-30
_chemical_name_common 'Rubidium germanium iodate(VII)'
_chemical_formula_structural 'Rb Ge (I O6)'
_chemical_formula_sum 'Ge1 I1 O6 Rb1'
_chemical_name_structure_type KNiIO6
_exptl_crystal_density_diffrn 4.54
_citation_title

;
Reinvestigation of the mixed-metal periodates M'MIO6 (M'=alkali metal, M=Ge,
Sn, Pb)
;
loop_
_citation_id
_citation_journal_full
_citation_year
_citation_journal_volume
_citation_page_first
_citation_page_last
_citation_journal_id_ASTM
primary 'Journal of Materials Chemistry' 1993 3 447 451 JMACEP
loop_
_citation_author_citation_id
_citation_author_name
primary 'Currie, D.B.'
primary 'Levason, W.'
primary 'Oldroyd, R.D.'
primary 'Weller, M.T.'
_cell_length_a 5.022(2)
_cell_length_b 5.022(2)
_cell_length_c 6.376(2)
_cell_angle_alpha 90.
_cell_angle_beta 90.
_cell_angle_gamma 120.
_cell_volume 139.26
_cell_formula_units_Z 1
_space_group_name_H-M_alt 'P 3 1 2'
_space_group_IT_number 149
loop_
_space_group_symop_id
_space_group_symop_operation_xyz
1 'x, x-y, -z'
2 '-x+y, y, -z'
3 '-y, -x, -z'
4 '-x+y, -x, z'
5 '-y, x-y, z'
6 'x, y, z'
loop_
_atom_type_symbol
_atom_type_oxidation_number
Rb1+ 1
I7+ 7
Ge4+ 4
O2- -2
loop_
_atom_site_label
_atom_site_type_symbol
_atom_site_symmetry_multiplicity
_atom_site_Wyckoff_symbol
_atom_site_fract_x
_atom_site_fract_y
_atom_site_fract_z
_atom_site_B_iso_or_equiv
_atom_site_occupancy
Rb1 Rb1+ 1 a 0 0 0 . 1.
I1 I7+ 1 f 0.6667 0.3333 0.5 . 1.
Ge1 Ge4+ 1 d 0.3333 0.6667 0.5 . 1.
O1 O2- 6 l 0.634(3) 0.009(3) 0.367(1) . 1.
#End of TTdata_73613-ICSD