
#(C) 2020 by FIZ Karlsruhe - Leibniz Institute for Information Infrastructure.  All rights reserved.
data_74548-ICSD
_database_code_ICSD 74548
_audit_creation_date 1995-10-17
_audit_update_record 2012-02-01
_chemical_name_common 'Dicalcium pentaborate chloride hydrate'
_chemical_formula_structural 'Ca2 (B5 O9) Cl (H2 O)'
_chemical_formula_sum 'H2 B5 Ca2 Cl1 O10'
_chemical_name_structure_type Ca2B5O9ClH2O
_chemical_name_mineral ''Hilgardite 1A''
_exptl_crystal_density_diffrn 2.69
_citation_title 'Refinement of the structure of hilgardite-1A'
loop_
_citation_id
_citation_journal_full
_citation_year
_citation_journal_volume
_citation_page_first
_citation_page_last
_citation_journal_id_ASTM
primary 'Acta Crystallographica, Section C: Crystal Structure Communications'
1994 50 653 655 ACSCEE
loop_
_citation_author_citation_id
_citation_author_name
primary 'Burns, P.C.'
primary 'Hawthorne, F.C.'
_cell_length_a 6.452(1)
_cell_length_b 6.559(1)
_cell_length_c 6.286(1)
_cell_angle_alpha 61.60(1)
_cell_angle_beta 118.72(1)
_cell_angle_gamma 105.86(1)
_cell_volume 204.87
_cell_formula_units_Z 1
_space_group_name_H-M_alt 'P 1'
_space_group_IT_number 1
loop_
_space_group_symop_id
_space_group_symop_operation_xyz
1 'x, y, z'
loop_
_atom_type_symbol
_atom_type_oxidation_number
Ca2+ 2
B3+ 3
O2- -2
Cl1- -1
H1+ 1
loop_
_atom_site_label
_atom_site_type_symbol
_atom_site_symmetry_multiplicity
_atom_site_Wyckoff_symbol
_atom_site_fract_x
_atom_site_fract_y
_atom_site_fract_z
_atom_site_U_iso_or_equiv
_atom_site_occupancy
Ca1 Ca2+ 1 a 0 0 0 . 1.
Ca2 Ca2+ 1 a 0.4524(1) 0.5484(1) 0.1099(1) . 1.
B1 B3+ 1 a 0.4741(4) 0.8707(4) 0.4713(4) . 1.
B2 B3+ 1 a 0.3306(4) 0.0909(4) 0.6016(4) . 1.
B3 B3+ 1 a 0.5515(4) 0.0245(4) 0.0713(5) . 1.
B4 B3+ 1 a 0.8823(4) 0.0030(4) 0.4837(5) . 1.
B5 B3+ 1 a 0.4476(4) 0.4211(4) 0.7138(5) . 1.
O1 O2- 1 a 0.8862(4) 0.5813(4) 0.2218(4) . 1.
O2 O2- 1 a 0.4477(3) 0.6424(3) 0.6750(3) . 1.
O3 O2- 1 a 0.7221(3) 0.9630(3) 0.5849(3) . 1.
O4 O2- 1 a 0.4205(3) 0.8525(3) 0.2258(3) . 1.
O5 O2- 1 a 0.3081(3) 0.0276(3) 0.4028(3) . 1.
O6 O2- 1 a 0.1080(3) 0.0518(3) 0.6372(3) . 1.
O7 O2- 1 a 0.3946(3) 0.3499(3) 0.5194(3) . 1.
O8 O2- 1 a 0.5119(3) 0.9652(3) 0.8620(3) . 1.
O9 O2- 1 a 0.8105(3) 0.0102(3) 0.2380(3) . 1.
O10 O2- 1 a 0.4851(3) 0.2634(3) 0.9706(3) . 1.
Cl1 Cl1- 1 a 0.9796(1) 0.4730(1) 0.8121(1) . 1.
H1 H1+ 1 a 0.926(7) 0.477(5) 0.180(8) 0.0213 1.
H2 H1+ 1 a 0.982(6) 0.557(7) 0.410(3) 0.0213 1.
loop_
_atom_site_aniso_label
_atom_site_aniso_type_symbol
_atom_site_aniso_U_11
_atom_site_aniso_U_22
_atom_site_aniso_U_33
_atom_site_aniso_U_12
_atom_site_aniso_U_13
_atom_site_aniso_U_23
Ca1 Ca2+ 0.01109(22) 0.00887(21) 0.00755(21) 0.00039(14) 0.00403(15) -.00400(15)
Ca2 Ca2+ 0.01307(22) 0.00897(21) 0.01083(22) -.00173(14) 0.00735(16) -.00529(16)
B1 B3+ 0.00660(97) 0.00253(97) 0.00586(94) 0.00067(76) 0.00265(77) -.00204(79)
B2 B3+ 0.00647(89) 0.00454(91) 0.00428(88) 0.00124(70) 0.00228(71) -.00153(75)
B3 B3+ 0.00655(93) 0.00576(91) 0.00642(94) 0.00130(72) 0.00250(77) -.00237(77)
B4 B3+ 0.0072(10) 0.0067(10) 0.0093(10) -.00082(77) 0.00353(81) -.00453(82)
B5 B3+ 0.00756(96) 0.00504(95) 0.0094(10) -.00052(75) 0.00354(80) -.00369(80)
O1 O2- 0.01678(92) 0.01445(90) 0.0250(10) 0.00169(72) 0.00523(77) -.00540(81)
O2 O2- 0.01702(76) 0.00351(65) 0.00803(65) 0.00022(56) 0.00716(59) -.00148(55)
O3 O2- 0.00497(64) 0.01305(74) 0.00805(70) -.00268(53) 0.00307(53) -.00708(60)
O4 O2- 0.00876(66) 0.00472(66) 0.00628(65) -.00144(52) 0.00449(52) -.00258(54)
O5 O2- 0.00788(68) 0.00763(69) 0.00544(66) 0.00322(51) 0.00169(53) -.00305(55)
O6 O2- 0.00601(69) 0.01659(80) 0.01104(73) -.00254(58) 0.00386(59) -.01047(64)
O7 O2- 0.01430(73) 0.00474(66) 0.00617(65) -.00028(54) 0.00461(55) -.00164(54)
O8 O2- 0.00916(71) 0.00593(68) 0.00459(68) 0.00280(53) 0.00225(55) -.00231(55)
O9 O2- 0.00607(67) 0.01590(78) 0.00607(69) 0.00087(57) 0.00198(55) -.00531(60)
O10 O2- 0.01352(73) 0.00493(67) 0.00547(65) 0.00131(55) 0.00469(55) -.00100(54)
Cl1 Cl1- 0.01315(24) 0.01027(25) 0.01972(27) 0.00085(18) 0.00697(20) -.0034(2)
#End of TTdata_74548-ICSD