
#(C) 2020 by FIZ Karlsruhe - Leibniz Institute for Information Infrastructure.  All rights reserved.
data_74595-ICSD
_database_code_ICSD 74595
_audit_creation_date 1995-10-17
_chemical_name_common 'Cesium potassium oxotitanium arsenate (.6/0.4/1/1)'
_chemical_formula_structural '(Cs0.625 K0.375) (Ti O) (As O4)'
_chemical_formula_sum 'As1 Cs0.625 K0.375 O5 Ti1'
_chemical_name_structure_type KTiOPO4#KFePO4F
_exptl_crystal_density_diffrn 4.15
_citation_title

;
High-temperature single-crystal X-ray diffraction studies of potassium and
(cesium,potassium) titanyl arsenates
;
loop_
_citation_id
_citation_journal_full
_citation_year
_citation_journal_volume
_citation_page_first
_citation_page_last
_citation_journal_id_ASTM
primary 'Chemistry of Materials' 1994 6 434 440 CMATEX
loop_
_citation_author_citation_id
_citation_author_name
primary 'Northrup, P.A.'
primary 'Parise, J.B.'
primary 'Cheng, L.K.'
primary 'Cheng, L.T.'
primary 'McCarron, E.M.'
_cell_length_a 13.3441(12)
_cell_length_b 6.6935(5)
_cell_length_c 10.7689(9)
_cell_angle_alpha 90.
_cell_angle_beta 90.
_cell_angle_gamma 90.
_cell_volume 961.86
_cell_formula_units_Z 8
_space_group_name_H-M_alt 'P n a 21'
_space_group_IT_number 33
loop_
_space_group_symop_id
_space_group_symop_operation_xyz
1 'x+1/2, -y+1/2, z'
2 '-x+1/2, y+1/2, z+1/2'
3 '-x, -y, z+1/2'
4 'x, y, z'
loop_
_atom_type_symbol
_atom_type_oxidation_number
Cs1+ 1
K1+ 1
Cs1+ 1
K1+ 1
Ti4+ 4
As5+ 5
O2- -2
loop_
_atom_site_label
_atom_site_type_symbol
_atom_site_symmetry_multiplicity
_atom_site_Wyckoff_symbol
_atom_site_fract_x
_atom_site_fract_y
_atom_site_fract_z
_atom_site_B_iso_or_equiv
_atom_site_occupancy
Cs1 Cs1+ 4 a 0.3816(1) 0.7773(2) 0.6661(3) 3.34(8) 0.33(1)
K1 K1+ 4 a 0.3816(1) 0.7773(2) 0.6661(3) 3.34(8) 0.67(1)
Cs2 Cs1+ 4 a 0.1054(1) 0.6778(1) 0.9126(2) 1.59(3) 0.92(1)
K2 K1+ 4 a 0.1054(1) 0.6778(1) 0.9126(2) 1.59(3) 0.08(1)
Ti1 Ti4+ 4 a 0.3730(1) 0.4886(2) 0 0.66(5) 1.
Ti2 Ti4+ 4 a 0.2548(1) 0.2570(3) 0.7435(3) 0.65(5) 1.
As1 As5+ 4 a 0.5033(1) 0.3279(1) 0.7400(2) 0.61(3) 1.
As2 As5+ 4 a 0.3184(1) 0.9907(1) 0.9868(2) 0.61(3) 1.
O1 O2- 4 a 0.4883(6) 0.4704(13) 0.8651(8) 1.3(3) 1.
O2 O2- 4 a 0.5144(6) 0.4757(14) 0.6135(8) 1.5(3) 1.
O3 O2- 4 a 0.4033(5) 0.1803(12) 0.7125(7) 1.1(2) 1.
O4 O2- 4 a 0.1069(5) 0.3143(11) 0.7527(7) 1.0(2) 1.
O5 O2- 4 a 0.3866(5) 0.7881(9) 0.9517(7) 0.9(2) 1.
O6 O2- 4 a 0.6096(6) 0.8109(11) 0.5201(8) 1.3(3) 1.
O7 O2- 4 a 0.2474(6) 0.0330(11) 0.8596(7) 1.0(2) 1.
O8 O2- 4 a 0.2641(6) 0.4461(13) 0.6007(8) 1.2(3) 1.
O9 O2- 4 a 0.2207(5) 0.0388(12) 0.6050(7) 1.0(2) 1.
O10 O2- 4 a 0.2865(5) 0.4353(11) 0.8549(8) 1.0(2) 1.
#End of TTdata_74595-ICSD