
#(C) 2020 by FIZ Karlsruhe - Leibniz Institute for Information Infrastructure.  All rights reserved.
data_74594-ICSD
_database_code_ICSD 74594
_audit_creation_date 1995-10-17
_audit_update_record 2003-04-01
_chemical_name_common 'Potassium oxotitanium arsenate(V)'
_chemical_formula_structural 'K (Ti O) (As O4)'
_chemical_formula_sum 'As1 K1 O5 Ti1'
_chemical_name_structure_type KTiOPO4#KFePO4F
_exptl_crystal_density_diffrn 3.41
_diffrn_ambient_temperature 998.
_citation_title

;
High-temperature single-crystal X-ray diffraction studies of potassium and
(cesium,potassium) titanyl arsenates
;
loop_
_citation_id
_citation_journal_full
_citation_year
_citation_journal_volume
_citation_page_first
_citation_page_last
_citation_journal_id_ASTM
primary 'Chemistry of Materials' 1994 6 434 440 CMATEX
loop_
_citation_author_citation_id
_citation_author_name
primary 'Northrup, P.A.'
primary 'Parise, J.B.'
primary 'Cheng, L.K.'
primary 'Cheng, L.T.'
primary 'McCarron, E.M.'
_cell_length_a 13.2386(23)
_cell_length_b 6.6417(12)
_cell_length_c 10.7189(17)
_cell_angle_alpha 90.
_cell_angle_beta 90.
_cell_angle_gamma 90.
_cell_volume 942.48
_cell_formula_units_Z 8
_space_group_name_H-M_alt 'P n a 21'
_space_group_IT_number 33
loop_
_space_group_symop_id
_space_group_symop_operation_xyz
1 'x+1/2, -y+1/2, z'
2 '-x+1/2, y+1/2, z+1/2'
3 '-x, -y, z+1/2'
4 'x, y, z'
loop_
_atom_type_symbol
_atom_type_oxidation_number
K1+ 1
Ti4+ 4
As5+ 5
O2- -2
loop_
_atom_site_label
_atom_site_type_symbol
_atom_site_symmetry_multiplicity
_atom_site_Wyckoff_symbol
_atom_site_fract_x
_atom_site_fract_y
_atom_site_fract_z
_atom_site_B_iso_or_equiv
_atom_site_occupancy
K1 K1+ 4 a 0.3816(11) 0.785(2) 0.347(2) 12.4(12) 1.
K2 K1+ 4 a 0.1077(8) 0.706(3) 0.094(2) 11.4(12) 1.
Ti1 Ti4+ 4 a 0.3725(2) 0.501(1) 0 2.1(2) 1.
Ti2 Ti4+ 4 a 0.2505(5) 0.251(1) 0.2526(11) 2.3(1) 1.
As1 As5+ 4 a 0.5006(2) 0.3278(2) 0.2540(9) 1.86(5) 1.
As2 As5+ 4 a 0.1798(1) 0.4987(5) 0.5034(9) 1.9(1) 1.
O1 O2- 4 a 0.9892(16) 0.017(6) 0.129(4) 6.0(13) 1.
O2 O2- 4 a 0.5172(12) 0.477(3) 0.378(2) 2.4(6) 1.
O3 O2- 4 a 0.3986(13) 0.183(4) 0.286(2) 2.7(7) 1.
O4 O2- 4 a 0.1033(15) 0.324(3) 0.241(2) 2.6(7) 1.
O5 O2- 4 a 0.3927(11) 0.801(3) 0.042(2) 2.5(7) 1.
O6 O2- 4 a 0.6126(23) 0.798(4) 0.468(3) 6.6(15) 1.
O7 O2- 4 a 0.2445(14) 0.037(4) 0.125(2) 3.2(8) 1.
O8 O2- 4 a 0.2617(16) 0.456(4) 0.380(3) 4.(1) 1.
O9 O2- 4 a 0.2152(17) 0.055(3) 0.372(3) 2.7(7) 1.
O10 O2- 4 a 0.2764(16) 0.452(4) 0.122(3) 3.0(8) 1.
#End of TTdata_74594-ICSD