
#(C) 2020 by FIZ Karlsruhe - Leibniz Institute for Information Infrastructure.  All rights reserved.
data_75215-ICSD
_database_code_ICSD 75215
_audit_creation_date 1995-10-17
_audit_update_record 2012-08-01
_chemical_name_common 'Cesium trichlorogermanate(II) - II'
_chemical_formula_structural 'Cs (Ge Cl3)'
_chemical_formula_sum 'Cl3 Cs1 Ge1'
_chemical_name_structure_type FeBiO3#KBrO3
_exptl_crystal_density_diffrn 3.22
_diffrn_ambient_temperature 294.
_citation_title

;
Successive phase transitions and high ionic conductivity of
trichlorogermanate(II) salts as studied by 35Cl NQR and powder X-ray
diffraction
;
loop_
_citation_id
_citation_journal_full
_citation_year
_citation_journal_volume
_citation_page_first
_citation_page_last
_citation_journal_id_ASTM
primary 'Zeitschrift fuer Naturforschung, A: Physical Sciences' 1994 49 258 266
ZNASEI
loop_
_citation_author_citation_id
_citation_author_name
primary 'Yamada, K.'
primary 'Isobe, K.'
primary 'Okuda, T.'
primary 'Furukawa, Y.'
_cell_length_a 5.439(1)
_cell_length_b 5.439(1)
_cell_length_c 5.439(1)
_cell_angle_alpha 89.71(1)
_cell_angle_beta 89.71(1)
_cell_angle_gamma 89.71(1)
_cell_volume 160.89
_cell_formula_units_Z 1
_space_group_name_H-M_alt 'R 3 m R'
_space_group_IT_number 160
loop_
_space_group_symop_id
_space_group_symop_operation_xyz
1 'z, y, x'
2 'z, x, y'
3 'x, z, y'
4 'y, z, x'
5 'y, x, z'
6 'x, y, z'
loop_
_atom_type_symbol
_atom_type_oxidation_number
Cs1+ 1
Ge2+ 2
Cl1- -1
loop_
_atom_site_label
_atom_site_type_symbol
_atom_site_symmetry_multiplicity
_atom_site_Wyckoff_symbol
_atom_site_fract_x
_atom_site_fract_y
_atom_site_fract_z
_atom_site_B_iso_or_equiv
_atom_site_occupancy
Cs1 Cs1+ 1 a 0 0 0 5.4(8) 1.
Ge1 Ge2+ 1 a 0.495(5) 0.495(5) 0.495(5) 0.8(8) 1.
Cl1 Cl1- 3 b 0.519(6) 0.519(6) 0.052(7) 8(2) 1.
#End of TTdata_75215-ICSD