
#(C) 2020 by FIZ Karlsruhe - Leibniz Institute for Information Infrastructure.  All rights reserved.
data_75340-ICSD
_database_code_ICSD 75340
_audit_creation_date 1996-04-22
_chemical_name_common 'Tribarium scandium tris(borate)'
_chemical_formula_structural 'Ba3 Sc (B O3)3'
_chemical_formula_sum 'B3 Ba3 O9 Sc1'
_chemical_name_structure_type HoBa3(BO3)3
_exptl_crystal_density_diffrn 5.
_citation_title
'The layered borates Ba3 M (B O3)3 (M=Dy,Ho,Y,Er,Tm,Yb,Lu and Sc)'
loop_
_citation_id
_citation_journal_full
_citation_year
_citation_journal_volume
_citation_page_first
_citation_page_last
_citation_journal_id_ASTM
primary 'Chemistry of Materials' 1994 6 2008 2013 CMATEX
loop_
_citation_author_citation_id
_citation_author_name
primary 'Cox, J.R.'
primary 'Keszler, D.A.'
primary 'Huang, J.-F.'
_cell_length_a 9.227(2)
_cell_length_b 9.227(2)
_cell_length_c 17.1350(30)
_cell_angle_alpha 90.
_cell_angle_beta 90.
_cell_angle_gamma 120.
_cell_volume 1263.39
_cell_formula_units_Z 6
_space_group_name_H-M_alt 'P 63 c m'
_space_group_IT_number 185
loop_
_space_group_symop_id
_space_group_symop_operation_xyz
1 'x, x-y, z+1/2'
2 '-x+y, y, z+1/2'
3 '-y, -x, z+1/2'
4 'x-y, x, z+1/2'
5 'y, -x+y, z+1/2'
6 '-x, -y, z+1/2'
7 '-x, -x+y, z'
8 'x-y, -y, z'
9 'y, x, z'
10 '-x+y, -x, z'
11 '-y, x-y, z'
12 'x, y, z'
loop_
_atom_type_symbol
_atom_type_oxidation_number
Ba2+ 2
Sc3+ 3
O2- -2
B3+ 3
loop_
_atom_site_label
_atom_site_type_symbol
_atom_site_symmetry_multiplicity
_atom_site_Wyckoff_symbol
_atom_site_fract_x
_atom_site_fract_y
_atom_site_fract_z
_atom_site_B_iso_or_equiv
_atom_site_occupancy
Ba1 Ba2+ 2 a 0 0 0 0.70(3) 1.
Ba2 Ba2+ 6 c 0.6774(1) 0 0.1535(2) 0.61(4) 1.
Ba3 Ba2+ 6 c 0.6571(1) 0 0.9041(2) 0.55(4) 1.
Ba4 Ba2+ 4 b 0.3333 0.6667 0.0515(1) 0.94(3) 1.
Sc1 Sc3+ 4 b 0.6667 0.3333 0.2795(4) 0.53(6) 1.
Sc2 Sc3+ 2 a 0 0 0.2843(4) 0.21(8) 1.
O1 O2- 12 d 0.520(1) 0.662(1) 0.2045(6) 0.5(1) 1.
O2 O2- 6 c 0.485(3) 0 0.0272(8) 1.0(3) 1.
O3 O2- 6 c 0.196(1) 0 0.2149(8) 0.4(1) 1.
O4 O2- 6 c 0.175(1) 0 0.8609(8) 0.6(2) 1.
O5 O2- 12 d 0.333(2) 0.148(2) 0.0280(6) 0.6(1) 1.
O6 O2- 12 d 0.329(1) 0.845(1) 0.8485(8) 1.1(2) 1.
B1 B3+ 6 c 0.327(3) 0 0.034(2) 0.6(1) 1.
B2 B3+ 6 c 0.329(2) 0 0.846(1) 0.6(1) 1.
B3 B3+ 6 c 0.338(2) 0 0.202(1) 0.6(1) 1.
#End of TTdata_75340-ICSD