
#(C) 2020 by FIZ Karlsruhe - Leibniz Institute for Information Infrastructure.  All rights reserved.
data_77518-ICSD
_database_code_ICSD 77518
_audit_creation_date 2003-04-01
_audit_update_record 2007-08-01
_chemical_name_common 'Calcium borophosphate(V)'
_chemical_formula_structural 'Ca (B P O5)'
_chemical_formula_sum 'B1 Ca1 O5 P1'
_chemical_name_structure_type BaBPO5
_exptl_crystal_density_diffrn 3.16
_citation_title

;
Borophosphate - eine vernachlaessigte Verbindungsklasse: Die
Kristallstrukturen von M(II) (B P O5) (M(II)= Ca, Sr) und Ba3 (B P3 O12)
;
loop_
_citation_id
_citation_journal_full
_citation_year
_citation_journal_volume
_citation_page_first
_citation_page_last
_citation_journal_id_ASTM
primary 'Angewandte Chemie' 1994 106 791 793 ANCEAD
loop_
_citation_author_citation_id
_citation_author_name
primary 'Kniep, R.'
primary 'Goezel, G.'
primary 'Eisenmann, B.'
primary 'Roehr, C.'
primary 'Asbrand, M.'
primary 'Kizilyalli, M.'
_cell_length_a 6.6799(2)
_cell_length_b 6.6799
_cell_length_c 6.6121(3)
_cell_angle_alpha 90.
_cell_angle_beta 90.
_cell_angle_gamma 120.
_cell_volume 255.51
_cell_formula_units_Z 3
_space_group_name_H-M_alt 'P 31 2 1'
_space_group_IT_number 152
loop_
_space_group_symop_id
_space_group_symop_operation_xyz
1 'x-y, -y, -z+2/3'
2 '-x, -x+y, -z+1/3'
3 'y, x, -z'
4 '-x+y, -x, z+2/3'
5 '-y, x-y, z+1/3'
6 'x, y, z'
loop_
_atom_type_symbol
_atom_type_oxidation_number
Ca2+ 2
B3+ 3
P5+ 5
O2- -2
loop_
_atom_site_label
_atom_site_type_symbol
_atom_site_symmetry_multiplicity
_atom_site_Wyckoff_symbol
_atom_site_fract_x
_atom_site_fract_y
_atom_site_fract_z
_atom_site_U_iso_or_equiv
_atom_site_occupancy
Ca1 Ca2+ 3 b 0.410(1) 0.41 0.5 0.043(2) 1.
B2 B3+ 3 b 0.888 0.888 0.5 0.050(9) 1.
P1 P5+ 3 a 0.418(2) 0.418 0 0.057(3) 1.
O1 O2- 6 c 0.360(4) 0.220(4) 0.862(3) 0.061(6) 1.
O2 O2- 6 c 0.617(3) 0.466(3) 0.134(2) 0.038(5) 1.
O3 O2- 3 a -.051(8) -.051 0 0.20(2) 1.
#End of TTdata_77518-ICSD