
#(C) 2020 by FIZ Karlsruhe - Leibniz Institute for Information Infrastructure.  All rights reserved.
data_77519-ICSD
_database_code_ICSD 77519
_audit_creation_date 2003-04-01
_audit_update_record 2007-08-01
_chemical_name_common 'Strontium borophosphate(V)'
_chemical_formula_structural 'Sr (B P O5)'
_chemical_formula_sum 'B1 O5 P1 Sr1'
_chemical_name_structure_type BaBPO5
_exptl_crystal_density_diffrn 3.77
_citation_title

;
Borophosphate - eine vernachlaessigte Verbindungsklasse: Die
Kristallstrukturen von M(II) (B P O5) (M(II)= Ca, Sr) und Ba3 (B P3 O12)
;
loop_
_citation_id
_citation_journal_full
_citation_year
_citation_journal_volume
_citation_page_first
_citation_page_last
_citation_journal_id_ASTM
primary 'Angewandte Chemie' 1994 106 791 793 ANCEAD
loop_
_citation_author_citation_id
_citation_author_name
primary 'Kniep, R.'
primary 'Goezel, G.'
primary 'Eisenmann, B.'
primary 'Roehr, C.'
primary 'Asbrand, M.'
primary 'Kizilyalli, M.'
_cell_length_a 6.8488(1)
_cell_length_b 6.8488
_cell_length_c 6.8159(2)
_cell_angle_alpha 90.
_cell_angle_beta 90.
_cell_angle_gamma 120.
_cell_volume 276.87
_cell_formula_units_Z 3
_space_group_name_H-M_alt 'P 31 2 1'
_space_group_IT_number 152
loop_
_space_group_symop_id
_space_group_symop_operation_xyz
1 'x-y, -y, -z+2/3'
2 '-x, -x+y, -z+1/3'
3 'y, x, -z'
4 '-x+y, -x, z+2/3'
5 '-y, x-y, z+1/3'
6 'x, y, z'
loop_
_atom_type_symbol
_atom_type_oxidation_number
Sr2+ 2
B3+ 3
P5+ 5
O2- -2
loop_
_atom_site_label
_atom_site_type_symbol
_atom_site_symmetry_multiplicity
_atom_site_Wyckoff_symbol
_atom_site_fract_x
_atom_site_fract_y
_atom_site_fract_z
_atom_site_U_iso_or_equiv
_atom_site_occupancy
Sr1 Sr2+ 3 b 0.394(1) 0.394 0.5 0.044(1) 1.
B2 B3+ 3 b 0.892 0.892 0.5 0.07(5) 1.
P1 P5+ 3 a 0.402(3) 0.402 0 0.041(2) 1.
O1 O2- 6 c 0.340(6) 0.197(7) 0.877(3) 0.06(1) 1.
O2 O2- 6 c 0.573(4) 0.436(3) 0.139(3) 0.039(8) 1.
O3 O2- 3 a -.051(8) -.051 0 0.08(1) 1.
#End of TTdata_77519-ICSD