
#(C) 2020 by FIZ Karlsruhe - Leibniz Institute for Information Infrastructure.  All rights reserved.
data_79025-ICSD
_database_code_ICSD 79025
_audit_creation_date 1996-04-22
_chemical_name_common 'Distrontium phyllo-diberyllodiborate'
_chemical_formula_structural 'Sr2 (Be2 B2 O7)'
_chemical_formula_sum 'B2 Be2 O7 Sr2'
_exptl_crystal_density_diffrn 3.73
_diffrn_ambient_temperature 296.
_citation_title

;
Design and synthesis of an ultraviolet-transparent nonlinear optical crystal
Sr2 Be2 B2 O7
;
loop_
_citation_id
_citation_journal_full
_citation_year
_citation_journal_volume
_citation_page_first
_citation_page_last
_citation_journal_id_ASTM
primary 'Nature (London, United Kingdom)' 1995 373 322 324 NATUAS
loop_
_citation_author_citation_id
_citation_author_name
primary 'Chen, C.-T.'
primary 'Wang, Y.-B.'
primary 'Wu, B.-C.'
primary 'Wu, K.-C.'
primary 'Zeng, W.-I.'
primary 'Yu, L.-H.'
_cell_length_a 4.683(3)
_cell_length_b 4.683(3)
_cell_length_c 15.311(7)
_cell_angle_alpha 90.
_cell_angle_beta 90.
_cell_angle_gamma 120.
_cell_volume 290.79
_cell_formula_units_Z 2
_space_group_name_H-M_alt 'P -6 c 2'
_space_group_IT_number 188
loop_
_space_group_symop_id
_space_group_symop_operation_xyz
1 'x, x-y, -z'
2 '-x+y, y, -z'
3 '-y, -x, -z'
4 'x, x-y, z+1/2'
5 '-x+y, y, z+1/2'
6 '-y, -x, z+1/2'
7 '-x+y, -x, -z+1/2'
8 '-y, x-y, -z+1/2'
9 'x, y, -z+1/2'
10 '-x+y, -x, z'
11 '-y, x-y, z'
12 'x, y, z'
loop_
_atom_type_symbol
_atom_type_oxidation_number
Sr2+ 2
O2- -2
B3+ 3
Be2+ 2
loop_
_atom_site_label
_atom_site_type_symbol
_atom_site_symmetry_multiplicity
_atom_site_Wyckoff_symbol
_atom_site_fract_x
_atom_site_fract_y
_atom_site_fract_z
_atom_site_B_iso_or_equiv
_atom_site_occupancy
Sr1 Sr2+ 2 a 0 0 0 0.8488(4) 1.
Sr2 Sr2+ 2 b 0 0 0.25 0.7602(2) 1.
O1 O2- 2 c 0.3333 0.6667 0 0.7819(3) 1.
O2 O2- 12 l 0.6289(3) 0.0221(2) 0.1382(8) 0.2063(1) 1.
B1 B3+ 4 i 0.6667 0.3333 0.1279(3) -.2527(6) 1.
Be1 Be2+ 4 h 0.3333 0.6667 0.1066(4) 0.6605(8) 1.
#End of TTdata_79025-ICSD