
#(C) 2020 by FIZ Karlsruhe - Leibniz Institute for Information Infrastructure.  All rights reserved.
data_80318-ICSD
_database_code_ICSD 80318
_audit_creation_date 1997-05-13
_audit_update_record 2005-10-01
_chemical_name_common 'Cesium tribromogermanate(II)'
_chemical_formula_structural 'Cs (Ge Br3)'
_chemical_formula_sum 'Br3 Cs1 Ge1'
_chemical_name_structure_type FeBiO3#KBrO3
_exptl_crystal_density_diffrn 4.35
_diffrn_ambient_pressure 600000.
_citation_title

;
Pressure-induced phase transition in Cs Ge Br3 studied by x-ray diffraction
and Raman spectroscopy
;
loop_
_citation_id
_citation_journal_full
_citation_year
_citation_journal_volume
_citation_page_first
_citation_page_last
_citation_journal_id_ASTM
primary 'Journal of Solid State Chemistry' 1995 118 20 27 JSSCBI
loop_
_citation_author_citation_id
_citation_author_name
primary 'Schwarz, U.'
primary 'Hillebrecht, H.'
primary 'Kaupp, M.'
primary 'Syassen, K.'
primary 'von Schnering, H.G.'
_cell_length_a 5.54(2)
_cell_length_b 5.54(2)
_cell_length_c 5.54(2)
_cell_angle_alpha 89.2(1)
_cell_angle_beta 89.2(1)
_cell_angle_gamma 89.2(1)
_cell_volume 169.98
_cell_formula_units_Z 1
_space_group_name_H-M_alt 'R 3 m R'
_space_group_IT_number 160
loop_
_space_group_symop_id
_space_group_symop_operation_xyz
1 'z, y, x'
2 'z, x, y'
3 'x, z, y'
4 'y, z, x'
5 'y, x, z'
6 'x, y, z'
loop_
_atom_type_symbol
_atom_type_oxidation_number
Cs1+ 1
Ge2+ 2
Br1- -1
loop_
_atom_site_label
_atom_site_type_symbol
_atom_site_symmetry_multiplicity
_atom_site_Wyckoff_symbol
_atom_site_fract_x
_atom_site_fract_y
_atom_site_fract_z
_atom_site_B_iso_or_equiv
_atom_site_occupancy
Cs1 Cs1+ 1 a 0 0 0 . 1.
Ge1 Ge2+ 1 a 0.482(2) 0.482(2) 0.482(2) . 1.
Br1 Br1- 3 b 0.502(2) 0.502(2) 0.023(1) . 1.
loop_
_atom_site_aniso_label
_atom_site_aniso_type_symbol
_atom_site_aniso_U_11
_atom_site_aniso_U_22
_atom_site_aniso_U_33
_atom_site_aniso_U_12
_atom_site_aniso_U_13
_atom_site_aniso_U_23
Cs1 Cs1+ 0.0502(21) 0.0502(21) 0.0502(21) 0.0132(23) 0.0132(23) 0.0132(23)
Ge1 Ge2+ 0.0314(23) 0.0314(23) 0.0314(23) 0.0152(26) 0.0152(26) 0.0152(26)
Br1 Br1- 0.0552(21) 0.0552(21) 0.0186(23) 0.0050(19) 0.0087(23) 0.0087(23)
#End of TTdata_80318-ICSD