
#(C) 2020 by FIZ Karlsruhe - Leibniz Institute for Information Infrastructure.  All rights reserved.
data_80875-ICSD
_database_code_ICSD 80875
_audit_creation_date 1997-05-13
_audit_update_record 2005-10-01
_chemical_name_common 'Cadmium trithiophosphate(IV) - LT'
_chemical_formula_structural 'Cd (P S3)'
_chemical_formula_sum 'Cd1 P1 S3'
_chemical_name_structure_type FePSe3
_exptl_crystal_density_diffrn 3.65
_diffrn_ambient_temperature 133.
_citation_title 'Phase transition upon d(10) Cd(2+) ordering in Cd P S3'
loop_
_citation_id
_citation_journal_full
_citation_year
_citation_journal_volume
_citation_page_first
_citation_page_last
_citation_journal_id_ASTM
primary 'Acta Crystallographica, Section B: Structural Science' 1995 51 952 961
ASBSDK
loop_
_citation_author_citation_id
_citation_author_name
primary 'Boucher, F.'
primary 'Evain, M.'
primary 'Brec, R.'
_cell_length_a 6.224(3)
_cell_length_b 6.224(3)
_cell_length_c 19.490(10)
_cell_angle_alpha 90.
_cell_angle_beta 90.
_cell_angle_gamma 120.
_cell_volume 653.86
_cell_formula_units_Z 6
_space_group_name_H-M_alt 'R 3 H'
_space_group_IT_number 146
loop_
_space_group_symop_id
_space_group_symop_operation_xyz
1 '-x+y, -x, z'
2 '-y, x-y, z'
3 'x, y, z'
4 '-x+y+2/3, -x+1/3, z+1/3'
5 '-y+2/3, x-y+1/3, z+1/3'
6 'x+2/3, y+1/3, z+1/3'
7 '-x+y+1/3, -x+2/3, z+2/3'
8 '-y+1/3, x-y+2/3, z+2/3'
9 'x+1/3, y+2/3, z+2/3'
loop_
_atom_type_symbol
_atom_type_oxidation_number
Cd2+ 2
P4+ 4
S2- -2
loop_
_atom_site_label
_atom_site_type_symbol
_atom_site_symmetry_multiplicity
_atom_site_Wyckoff_symbol
_atom_site_fract_x
_atom_site_fract_y
_atom_site_fract_z
_atom_site_B_iso_or_equiv
_atom_site_occupancy
Cd1 Cd2+ 3 a 0 0 0.3291(1) . 1.
Cd2 Cd2+ 3 a 0.3333 0.6667 0.33798(5) . 1.
P1 P4+ 3 a 0.6667 0.3333 0.3900(1) . 1.
P2 P4+ 3 a 0.6667 0.3333 0.2757(1) . 1.
S1 S2- 9 b 0.3450(3) 0.3214(3) 0.4201(2) . 1.
S2 S2- 9 b -.0168(3) 0.3422(3) 0.2471(2) . 1.
loop_
_atom_site_aniso_label
_atom_site_aniso_type_symbol
_atom_site_aniso_U_11
_atom_site_aniso_U_22
_atom_site_aniso_U_33
_atom_site_aniso_U_12
_atom_site_aniso_U_13
_atom_site_aniso_U_23
Cd1 Cd2+ 0.00792(7) 0.00792(7) 0.0167(2) 0.00396(4) 0 0
Cd2 Cd2+ 0.00792(7) 0.00792(7) 0.0167(2) 0.00396(4) 0 0
P1 P4+ 0.0065(2) 0.0065(2) 0.072(3) 0.0033(1) 0 0
P2 P4+ 0.0065(2) 0.0065(2) 0.072(3) 0.0033(1) 0 0
S1 S2- 0.0087(32) 0.0100(32) 0.0099(1) 0.0077(1) 0.0011(4) 0.0005(4)
S2 S2- 0.0087(2) 0.0100(2) 0.0099(1) 0.0077(1) 0.0011(4) 0.0005(4)
#End of TTdata_80875-ICSD