
#(C) 2020 by FIZ Karlsruhe - Leibniz Institute for Information Infrastructure.  All rights reserved.
data_8162-ICSD
_database_code_ICSD 8162
_audit_creation_date 1980-01-01
_audit_update_record 1985-03-25
_chemical_name_common 'Potassium tetrathiophosphate hydrate'
_chemical_formula_structural 'K3 P S4 H2 O'
_chemical_formula_sum 'H2 K3 O1 P1 S4'
_exptl_crystal_density_diffrn 1.94
_citation_title 'Die Struktur des K3 P S4 H2 O'
loop_
_citation_id
_citation_journal_full
_citation_year
_citation_journal_volume
_citation_page_first
_citation_page_last
_citation_journal_id_ASTM
primary

;
Zeitschrift fuer Naturforschung, Teil B: Anorganische Chemie, Organische
Chemie
; 1979 34 1337 1338 ZNBAD2
loop_
_citation_author_citation_id
_citation_author_name
primary 'Volk, K.'
primary 'Schaefer, H.'
_cell_length_a 12.05(1)
_cell_length_b 12.51(1)
_cell_length_c 6.678(5)
_cell_angle_alpha 90.
_cell_angle_beta 90.
_cell_angle_gamma 90.
_cell_volume 1006.68
_cell_formula_units_Z 4
_space_group_name_H-M_alt 'P 21 21 2'
_space_group_IT_number 18
loop_
_space_group_symop_id
_space_group_symop_operation_xyz
1 '-x+1/2, y+1/2, -z'
2 'x+1/2, -y+1/2, -z'
3 '-x, -y, z'
4 'x, y, z'
loop_
_atom_type_symbol
_atom_type_oxidation_number
K1+ 1
P5+ 5
S2- -2
O2- -2
H1+ 1
loop_
_atom_site_label
_atom_site_type_symbol
_atom_site_symmetry_multiplicity
_atom_site_Wyckoff_symbol
_atom_site_fract_x
_atom_site_fract_y
_atom_site_fract_z
_atom_site_B_iso_or_equiv
_atom_site_occupancy
K1 K1+ 4 c 0.8869(4) 0.1292(3) 0.8631(7) . 1.
K2 K1+ 4 c 0.2996(4) 0.0279(3) 0.2923(6) . 1.
K3 K1+ 4 c 0.5525(3) 0.1865(3) 0.6023(5) . 1.
P1 P5+ 4 c 0.2384(3) 0.1601(2) 0.7606 . 1.
S1 S2- 4 c 0.3578(3) 0.0442(3) 0.8020(6) . 1.
S2 S2- 4 c 0.1111(3) 0.0942(3) 0.6044(6) . 1.
S3 S2- 4 c 0.3050(4) 0.2883(3) 0.6154(7) . 1.
S4 S2- 4 c 0.1827(4) 0.2091(3) 0.0340(6) . 1.
O1 O2- 4 c 0.5151(12) 0.1280(11) 0.1867(19) 0.0481(32) 1.
loop_
_atom_site_aniso_label
_atom_site_aniso_type_symbol
_atom_site_aniso_U_11
_atom_site_aniso_U_22
_atom_site_aniso_U_33
_atom_site_aniso_U_12
_atom_site_aniso_U_13
_atom_site_aniso_U_23
K1 K1+ 0.0536(26) 0.0399(18) 0.0526(22) -.0007(8) 0.0083(21) 0.0129(18)
K2 K1+ 0.0383(22) 0.0342(17) 0.0289(16) 0.0070(15) 0.0038(17) 0.0067(17)
K3 K1+ 0.0308(18) 0.0337(15) 0.0350(16) -.0003(14) 0.0019(15) -.0050(13)
P1 P5+ 0.0209(18) 0.0175(12) 0.0219(14) -.0005(11) 0.0011(13) 0.0013(12)
S1 S2- 0.0290(19) 0.0208(13) 0.0329(17) -.0009(13) -.0008(15) 0.0071(13)
S2 S2- 0.0278(20) 0.0293(15) 0.0357(17) -.0033(15) -.0054(16) -.0033(15)
S3 S2- 0.0305(20) 0.0248(15) 0.0477(21) 0.0102(16) 0.0028(19) -.0014(14)
S4 S2- 0.0400(24) 0.0392(19) 0.0273(16) -.0069(15) 0.0053(17) 0.0094(18)
#End of TTdata_8162-ICSD