
#(C) 2020 by FIZ Karlsruhe - Leibniz Institute for Information Infrastructure.  All rights reserved.
data_82145-ICSD
_database_code_ICSD 82145
_audit_creation_date 1999-11-30
_audit_update_record 2006-04-01
_chemical_name_common 'Rubidium tecto-tetrathiodiargentoantimonate'
_chemical_formula_structural 'Rb (Ag2 Sb S4)'
_chemical_formula_sum 'Ag2 Rb1 S4 Sb1'
_chemical_name_structure_type Cu2SnSrS4
_exptl_crystal_density_diffrn 4.32
_diffrn_ambient_temperature 295.
_citation_title

;
Supercritical ammonia synthesis and characterization of four new alkali metal
silver antimony sulfides: M Ag2 Sb S4 and M2 Ag Sb S4 (M=K, Rb)
;
loop_
_citation_id
_citation_journal_full
_citation_year
_citation_journal_volume
_citation_page_first
_citation_page_last
_citation_journal_id_ASTM
primary 'Journal of Solid State Chemistry' 1996 123 277 284 JSSCBI
loop_
_citation_author_citation_id
_citation_author_name
primary 'Schimek, G.L.'
primary 'Pennington, W.T.'
primary 'Wood, P.T.'
primary 'Kolis, J.W.'
_cell_length_a 6.630(1)
_cell_length_b 6.630(1)
_cell_length_c 16.700(2)
_cell_angle_alpha 90.
_cell_angle_beta 90.
_cell_angle_gamma 120.
_cell_volume 635.73
_cell_formula_units_Z 3
_space_group_name_H-M_alt 'P 32 2 1'
_space_group_IT_number 154
loop_
_space_group_symop_id
_space_group_symop_operation_xyz
1 '-x, -x+y, -z+2/3'
2 'x-y, -y, -z+1/3'
3 'y, x, -z'
4 '-x+y, -x, z+1/3'
5 '-y, x-y, z+2/3'
6 'x, y, z'
loop_
_atom_type_symbol
_atom_type_oxidation_number
Rb1+ 1
Ag1+ 1
Sb5+ 5
S2- -2
loop_
_atom_site_label
_atom_site_type_symbol
_atom_site_symmetry_multiplicity
_atom_site_Wyckoff_symbol
_atom_site_fract_x
_atom_site_fract_y
_atom_site_fract_z
_atom_site_U_iso_or_equiv
_atom_site_occupancy
Rb1 Rb1+ 3 b 0.4430(3) 0.4430(3) 0.5 0.030(1) 1.
Ag1 Ag1+ 6 c 0.0979(2) 0.7172(2) 0.5962(1) 0.044(1) 1.
Sb1 Sb5+ 3 a 0.7218(2) 0 0.6667 0.014(1) 1.
S1 S2- 6 c 0.5066(5) -.0198(5) 0.5533(2) 0.022(1) 1.
S2 S2- 6 c 0.7598(5) 0.6674(6) 0.6746(2) 0.021(1) 1.
#End of TTdata_82145-ICSD