
#(C) 2020 by FIZ Karlsruhe - Leibniz Institute for Information Infrastructure.  All rights reserved.
data_82393-ICSD
_database_code_ICSD 82393
_audit_creation_date 1997-11-10
_chemical_name_common 'Strontium nonaoxotetragermanate'
_chemical_formula_structural 'Sr (Ge4 O9)'
_chemical_formula_sum 'Ge4 O9 Sr1'
_chemical_name_structure_type BaGe4O9
_exptl_crystal_density_diffrn 4.91
_citation_title 'Strontium tetragermanate, Sr Ge4 O9'
loop_
_citation_id
_citation_journal_full
_citation_year
_citation_journal_volume
_citation_page_first
_citation_page_last
_citation_journal_id_ASTM
primary 'Acta Crystallographica, Section C: Crystal Structure Communications'
1996 52 2393 2395 ACSCEE
loop_
_citation_author_citation_id
_citation_author_name
primary 'Nishi, F.'
_cell_length_a 11.344(2)
_cell_length_b 11.344(2)
_cell_length_c 4.750(2)
_cell_angle_alpha 90.
_cell_angle_beta 90.
_cell_angle_gamma 120.
_cell_volume 529.37
_cell_formula_units_Z 3
_space_group_name_H-M_alt 'P 3 2 1'
_space_group_IT_number 150
loop_
_space_group_symop_id
_space_group_symop_operation_xyz
1 'x-y, -y, -z'
2 '-x, -x+y, -z'
3 'y, x, -z'
4 '-x+y, -x, z'
5 '-y, x-y, z'
6 'x, y, z'
loop_
_atom_type_symbol
_atom_type_oxidation_number
Sr2+ 2
Ge4+ 4
O2- -2
loop_
_atom_site_label
_atom_site_type_symbol
_atom_site_symmetry_multiplicity
_atom_site_Wyckoff_symbol
_atom_site_fract_x
_atom_site_fract_y
_atom_site_fract_z
_atom_site_B_iso_or_equiv
_atom_site_occupancy
Sr1 Sr2+ 3 e 0.3280(1) 0 0 . 1.
Ge1 Ge4+ 1 a 0 0 0 . 1.
Ge2 Ge4+ 2 d 0.3333 0.6667 0.1076(4) . 1.
Ge3 Ge4+ 3 f 0.8209(1) 0 0.5 . 1.
Ge4 Ge4+ 6 g 0.4908(1) 0.3410(1) 0.3990(2) . 1.
O1 O2- 3 f 0.5112(9) 0 0.5 . 1.
O2 O2- 6 g 0.6022(8) 0.4222(8) 0.1245(14) . 1.
O3 O2- 6 g 0.1546(7) 0.0616(8) 0.7636(13) . 1.
O4 O2- 6 g 0.3255(8) 0.2145(8) 0.2949(16) . 1.
O5 O2- 6 g 0.5102(7) 0.2496(8) 0.6722(13) . 1.
#End of TTdata_82393-ICSD