
#(C) 2020 by FIZ Karlsruhe - Leibniz Institute for Information Infrastructure.  All rights reserved.
data_8241-ICSD
_database_code_ICSD 8241
_audit_creation_date 1980-01-01
_audit_update_record 2012-08-01
_chemical_name_common 'Dodecabismuth germanium oxide'
_chemical_formula_structural 'Bi12 Ge O20'
_chemical_formula_sum 'Bi12 Ge1 O20'
_chemical_name_structure_type Sillenite#Bi12SiO20
_exptl_crystal_density_diffrn 9.22
_citation_title 'Laevorotatory Bi12 Ge O20. Remeasurement of the structure'
loop_
_citation_id
_citation_journal_full
_citation_year
_citation_journal_volume
_citation_page_first
_citation_page_last
_citation_journal_id_ASTM
primary

;
Acta Crystallographica, Section B: Structural Crystallography and Crystal
Chemistry
; 1979 35 2687 2690 ACBCAR
loop_
_citation_author_citation_id
_citation_author_name
primary 'Svensson, C.'
primary 'Abrahams, S.C.'
primary 'Bernstein, J.L.'
_cell_length_a 10.1454(1)
_cell_length_b 10.1454(1)
_cell_length_c 10.1454(1)
_cell_angle_alpha 90.
_cell_angle_beta 90.
_cell_angle_gamma 90.
_cell_volume 1044.26
_cell_formula_units_Z 2
_space_group_name_H-M_alt 'I 2 3'
_space_group_IT_number 197
loop_
_space_group_symop_id
_space_group_symop_operation_xyz
1 '-z, -x, y'
2 '-y, -z, x'
3 '-x, -y, z'
4 '-z, x, -y'
5 '-y, z, -x'
6 '-x, y, -z'
7 'z, -x, -y'
8 'y, -z, -x'
9 'x, -y, -z'
10 'z, x, y'
11 'y, z, x'
12 'x, y, z'
13 '-z+1/2, -x+1/2, y+1/2'
14 '-y+1/2, -z+1/2, x+1/2'
15 '-x+1/2, -y+1/2, z+1/2'
16 '-z+1/2, x+1/2, -y+1/2'
17 '-y+1/2, z+1/2, -x+1/2'
18 '-x+1/2, y+1/2, -z+1/2'
19 'z+1/2, -x+1/2, -y+1/2'
20 'y+1/2, -z+1/2, -x+1/2'
21 'x+1/2, -y+1/2, -z+1/2'
22 'z+1/2, x+1/2, y+1/2'
23 'y+1/2, z+1/2, x+1/2'
24 'x+1/2, y+1/2, z+1/2'
loop_
_atom_type_symbol
_atom_type_oxidation_number
Bi3+ 3
Ge4+ 4
O2- -2
loop_
_atom_site_label
_atom_site_type_symbol
_atom_site_symmetry_multiplicity
_atom_site_Wyckoff_symbol
_atom_site_fract_x
_atom_site_fract_y
_atom_site_fract_z
_atom_site_B_iso_or_equiv
_atom_site_occupancy
Bi1 Bi3+ 24 f 0.17587(2) 0.31832(3) 0.01600(2) 0.652 1.
Ge1 Ge4+ 2 a 0 0 0 0.18 1.
O1 O2- 24 f 0.1349(5) 0.2514(5) 0.4866(6) 0.94 1.
O2 O2- 8 c 0.1953(7) 0.1953(7) 0.1953(7) 0.86 1.
O3 O2- 8 c 0.8998(6) 0.8998(6) 0.8998(6) 1.04 1.
#End of TTdata_8241-ICSD