
#(C) 2020 by FIZ Karlsruhe - Leibniz Institute for Information Infrastructure.  All rights reserved.
data_83345-ICSD
_database_code_ICSD 83345
_audit_creation_date 1998-06-26
_chemical_name_common 'Distrontium germanate - alpha'L'
_chemical_formula_structural 'Sr2 (Ge O4)'
_chemical_formula_sum 'Ge1 O4 Sr2'
_exptl_crystal_density_diffrn 4.99
_citation_title 'Structure of strontium germanate alpha'L- Sr2 Ge O4'
loop_
_citation_id
_citation_journal_full
_citation_year
_citation_journal_volume
_citation_page_first
_citation_page_last
_citation_journal_id_ASTM
primary 'Zeitschrift fuer Kristallographie' 1996 211 607 611 ZEKRDZ
loop_
_citation_author_citation_id
_citation_author_name
primary 'Nishi, F.'
primary 'Takeuchi, Y.'
_cell_length_a 5.8520(4)
_cell_length_b 14.2991(8)
_cell_length_c 9.9165(6)
_cell_angle_alpha 90.
_cell_angle_beta 90.
_cell_angle_gamma 90.
_cell_volume 829.8
_cell_formula_units_Z 8
_space_group_name_H-M_alt 'P b n 21'
_space_group_IT_number 33
loop_
_space_group_symop_id
_space_group_symop_operation_xyz
1 '-x+1/2, y+1/2, z'
2 'x+1/2, -y+1/2, z+1/2'
3 '-x, -y, z+1/2'
4 'x, y, z'
loop_
_atom_type_symbol
_atom_type_oxidation_number
Sr2+ 2
Ge4+ 4
O2- -2
loop_
_atom_site_label
_atom_site_type_symbol
_atom_site_symmetry_multiplicity
_atom_site_Wyckoff_symbol
_atom_site_fract_x
_atom_site_fract_y
_atom_site_fract_z
_atom_site_B_iso_or_equiv
_atom_site_occupancy
Sr1 Sr2+ 4 a 0.2716(4) 0.5441(1) 0.5719(2) . 1.
Sr2 Sr2+ 4 a 0.2895(4) 0.7956(2) 0.9280(3) . 1.
Sr3 Sr2+ 4 a 0.2957(3) 0.6210(2) 0.2032(3) . 1.
Sr4 Sr2+ 4 a 0.2289(4) 0.3712(2) 0.2984(4) . 1.
Ge1 Ge4+ 4 a 0.2784(5) 0.7636(2) 0.5845(3) . 1.
Ge2 Ge4+ 4 a 0.2306(4) 0.5209(1) 0.9164(2) . 1.
O1 O2- 4 a 0.3509(22) 0.7007(10) 0.4332(14) . 1.
O2 O2- 4 a 0.0334(24) 0.7047(10) 0.6418(14) . 1.
O3 O2- 4 a 0.1863(23) 0.8754(10) 0.5477(13) . 1.
O4 O2- 4 a 0.4880(23) 0.7496(10) 0.7063(16) . 1.
O5 O2- 4 a 0.2763(27) 0.4588(9) 0.0651(14) . 1.
O6 O2- 4 a -.0165(26) 0.4721(11) 0.8470(15) . 1.
O7 O2- 4 a 0.3345(26) 0.138(1) 0.9504(15) . 1.
O8 O2- 4 a 0.4588(24) 0.5024(11) 0.8078(16) . 1.
#End of TTdata_83345-ICSD