
#(C) 2020 by FIZ Karlsruhe - Leibniz Institute for Information Infrastructure.  All rights reserved.
data_83734-ICSD
_database_code_ICSD 83734
_audit_creation_date 1999-01-19
_chemical_name_common 'Barium tetragermanate'
_chemical_formula_structural 'Ba (Ge4 O9)'
_chemical_formula_sum 'Ba1 Ge4 O9'
_chemical_name_structure_type BaGe4O9
_exptl_crystal_density_diffrn 5.12
_citation_title

;
Atomic structure of crystals of alpha-(Pb Ge4 O9), Ba Ge4 O9, and Pb2/3 Sr1/3
Ge4 O9 and features of the coordination of germanium atoms in framework
tetragermanates
;
loop_
_citation_id
_citation_journal_full
_citation_year
_citation_journal_volume
_citation_page_first
_citation_page_last
_citation_journal_id_ASTM
primary 'Koordinatsionnaya Khimiya' 1984 10 1420 1426 KOKHDC
loop_
_citation_author_citation_id
_citation_author_name
primary 'Shashkov, A.Yu.'
primary 'Rannev, N.V.'
primary 'Venevtsev, Yu.N.'
_cell_length_a 11.608(6)
_cell_length_b 11.608(6)
_cell_length_c 4.768(2)
_cell_angle_alpha 90.
_cell_angle_beta 90.
_cell_angle_gamma 120.
_cell_volume 556.39
_cell_formula_units_Z 3
_space_group_name_H-M_alt 'P 3 2 1'
_space_group_IT_number 150
loop_
_space_group_symop_id
_space_group_symop_operation_xyz
1 'x-y, -y, -z'
2 '-x, -x+y, -z'
3 'y, x, -z'
4 '-x+y, -x, z'
5 '-y, x-y, z'
6 'x, y, z'
loop_
_atom_type_symbol
_atom_type_oxidation_number
Ba2+ 2
Ge4+ 4
O2- -2
loop_
_atom_site_label
_atom_site_type_symbol
_atom_site_symmetry_multiplicity
_atom_site_Wyckoff_symbol
_atom_site_fract_x
_atom_site_fract_y
_atom_site_fract_z
_atom_site_B_iso_or_equiv
_atom_site_occupancy
Ba1 Ba2+ 3 e 0.6680(1) 0 0 . 1.
Ge1 Ge4+ 6 g 0.1491(1) 0.4871(1) 0.4075(2) . 1.
Ge2 Ge4+ 3 f 0.1787(2) 0 0.5 . 1.
Ge3 Ge4+ 2 d 0.3333 0.6667 0.8980(4) . 1.
Ge4 Ge4+ 1 a 0 0 0 . 1.
O1 O2- 6 g 0.0898(4) 0.1516(8) 0.766(1) . 1.
O2 O2- 6 g 0.1134(8) 0.3247(9) 0.308(2) . 1.
O3 O2- 6 g 0.2627(9) 0.5134(8) 0.675(2) . 1.
O4 O2- 6 g 0.1806(8) 0.5927(9) 0.123(2) . 1.
O5 O2- 3 f 0.4812(11) 0 0.5 . 1.
#End of TTdata_83734-ICSD