
#(C) 2020 by FIZ Karlsruhe - Leibniz Institute for Information Infrastructure.  All rights reserved.
data_84855-ICSD
_database_code_ICSD 84855
_audit_creation_date 1999-01-19
_chemical_name_common 'Thallium(I) triborate'
_chemical_formula_structural 'Tl (B3 O5)'
_chemical_formula_sum 'B3 O5 Tl1'
_chemical_name_structure_type CsB3O5
_exptl_crystal_density_diffrn 4.8
_citation_title 'Crystal structure of thallium triborate, Tl B3 O5'
loop_
_citation_id
_citation_journal_full
_citation_year
_citation_journal_volume
_citation_page_first
_citation_page_last
_citation_journal_id_ASTM
primary 'Journal of Solid State Chemistry' 1997 131 370 373 JSSCBI
loop_
_citation_author_citation_id
_citation_author_name
primary 'Touboul, M.'
primary 'Betourne, E.'
primary 'Novogorocki, G.'
_cell_length_a 5.2099(3)
_cell_length_b 8.248(1)
_cell_length_c 10.206(2)
_cell_angle_alpha 90.
_cell_angle_beta 90.
_cell_angle_gamma 90.
_cell_volume 438.56
_cell_formula_units_Z 4
_space_group_name_H-M_alt 'P 21 21 21'
_space_group_IT_number 19
loop_
_space_group_symop_id
_space_group_symop_operation_xyz
1 '-x, y+1/2, -z+1/2'
2 'x+1/2, -y+1/2, -z'
3 '-x+1/2, -y, z+1/2'
4 'x, y, z'
loop_
_atom_type_symbol
_atom_type_oxidation_number
Tl1+ 1
O2- -2
B3+ 3
loop_
_atom_site_label
_atom_site_type_symbol
_atom_site_symmetry_multiplicity
_atom_site_Wyckoff_symbol
_atom_site_fract_x
_atom_site_fract_y
_atom_site_fract_z
_atom_site_B_iso_or_equiv
_atom_site_occupancy
Tl1 Tl1+ 4 a 0.02784(10) 0.27599(6) 0.12869(6) . 1.
O1 O2- 4 a 0.5536(18) 0.5512(9) 0.0576(9) . 1.
O2 O2- 4 a 0.1831(14) 0.7274(10) 0.0800(8) . 1.
O3 O2- 4 a 0.3559(16) 0.9939(9) 0.1077(10) . 1.
O4 O2- 4 a 0.5652(15) 0.7709(10) 0.2137(8) . 1.
O5 O2- 4 a 0.2940(16) 0.5367(9) 0.2456(9) . 1.
B1 B3+ 4 a 0.539(3) 0.933(1) 0.191(1) . 1.
B2 B3+ 4 a 0.196(3) 0.883(2) 0.041(2) . 1.
B3 B3+ 4 a 0.397(3) 0.652(2) 0.147(1) . 1.
#End of TTdata_84855-ICSD