
#(C) 2020 by FIZ Karlsruhe - Leibniz Institute for Information Infrastructure.  All rights reserved.
data_85006-ICSD
_database_code_ICSD 85006
_audit_creation_date 1999-06-02
_audit_update_record 2007-08-01
_chemical_name_common 'Dipotassium zinc germanate - alpha'
_chemical_formula_structural 'K2 Zn (Ge O4)'
_chemical_formula_sum 'Ge1 K2 O4 Zn1'
_chemical_name_structure_type Na2BeSiO4
_exptl_crystal_density_diffrn 3.81
_diffrn_ambient_temperature 298.
_citation_title 'Crystal structures of the alpha and beta forms of K2 Zn Ge O4'
loop_
_citation_id
_citation_journal_full
_citation_year
_citation_journal_volume
_citation_page_first
_citation_page_last
_citation_journal_id_ASTM
primary 'Journal of Solid State Chemistry' 1997 134 59 66 JSSCBI
loop_
_citation_author_citation_id
_citation_author_name
primary 'Colbeau-Justin, C.'
primary 'Wallez, G.'
primary 'Elfakir, A.'
primary 'Quarton, M.'
primary 'Suard, E.'
_cell_length_a 11.1131(4)
_cell_length_b 5.5369(2)
_cell_length_c 15.8629(5)
_cell_angle_alpha 90.
_cell_angle_beta 90.
_cell_angle_gamma 90.
_cell_volume 976.08
_cell_formula_units_Z 8
_space_group_name_H-M_alt 'P c a 21'
_space_group_IT_number 29
loop_
_space_group_symop_id
_space_group_symop_operation_xyz
1 'x+1/2, -y, z'
2 '-x+1/2, y, z+1/2'
3 '-x, -y, z+1/2'
4 'x, y, z'
loop_
_atom_type_symbol
_atom_type_oxidation_number
Zn2+ 2
Ge4+ 4
K1+ 1
O2- -2
loop_
_atom_site_label
_atom_site_type_symbol
_atom_site_symmetry_multiplicity
_atom_site_Wyckoff_symbol
_atom_site_fract_x
_atom_site_fract_y
_atom_site_fract_z
_atom_site_B_iso_or_equiv
_atom_site_occupancy
Zn1 Zn2+ 4 a 0.2366(12) 0.0246(20) 0.7543(10) 0.6(2) 1.
Zn2 Zn2+ 4 a 0.0105(12) 0.5039(17) 0 0.6(2) 1.
Ge1 Ge4+ 4 a 0.0082(7) 0.0169(10) 0.1225(9) 0.10(8) 1.
Ge2 Ge4+ 4 a 0.2356(7) 0.5374(12) 0.3795(9) 0.10(8) 1.
K1 K1+ 4 a 0.0222(15) 0.5167(28) 0.2467(13) 0.88(9) 1.
K2 K1+ 4 a 0.0091(14) 0.0044(33) 0.8736(16) 0.88(9) 1.
K3 K1+ 4 a 0.2301(17) 0.5464(29) 0.6309(15) 0.88(9) 1.
K4 K1+ 4 a 0.2407(15) 0.0586(32) 0.4941(13) 0.88(9) 1.
O1 O2- 4 a 0.161(1) 0.0656(18) 0.1493(11) 1.10(5) 1.
O2 O2- 4 a 0.1702(10) 0.5882(17) 0.9669(12) 1.10(5) 1.
O3 O2- 4 a 0.2016(11) 0.3379(18) 0.8041(11) 1.10(5) 1.
O4 O2- 4 a 0.1961(11) 0.8066(16) 0.3319(11) 1.10(5) 1.
O5 O2- 4 a 0.0877(11) 0.8947(19) 0.7075(11) 1.10(5) 1.
O6 O2- 4 a 0.0926(11) 0.4116(19) 0.4089(11) 1.10(5) 1.
O7 O2- 4 a 0.0272(10) 0.8316(18) 0.5320(12) 1.10(5) 1.
O8 O2- 4 a 0.0139(10) 0.3038(16) 0.6033(11) 1.10(5) 1.
#End of TTdata_85006-ICSD