
#(C) 2020 by FIZ Karlsruhe - Leibniz Institute for Information Infrastructure.  All rights reserved.
data_8590-ICSD
_database_code_ICSD 8590
_audit_creation_date 2020-08-01
_chemical_name_common 'Cesium cadmium tribromide'
_chemical_formula_structural 'Cs Cd Br3'
_chemical_formula_sum 'Br3 Cd1 Cs1'
_exptl_crystal_density_diffrn 2.31
_citation_title

;
Structural peculiarities, point defects and luminescence in Bi-doped CsCdX$_3$
(X脗聽= Cl, Br) single crystals
;
loop_
_citation_id
_citation_journal_full
_citation_year
_citation_journal_volume
_citation_page_first
_citation_page_last
_citation_journal_id_ASTM
primary 'Journal of Alloys and Compounds' 2019 803 912 921 JALCEU
loop_
_citation_author_citation_id
_citation_author_name
primary 'Vtyurina, Daria N.'
primary 'Kaurova, Irina A.'
primary 'Kuz'micheva, Galina M.'
primary 'Rybakov, Victor B.'
primary 'Chernyshov, Dmitry Yu.'
primary 'Khramov, Evgeny V.'
primary 'Firstov, Sergey V.'
primary 'Korchak, Vladimir N.'
_cell_length_a 7.7167(2)
_cell_length_b 7.7167(2)
_cell_length_c 6.7644(3)
_cell_angle_alpha 90.
_cell_angle_beta 90.
_cell_angle_gamma 120.
_cell_volume 348.84
_cell_formula_units_Z 1
_space_group_name_H-M_alt 'P 63/m m c'
_space_group_IT_number 194
loop_
_space_group_symop_id
_space_group_symop_operation_xyz
1 'x, x-y, -z+1/2'
2 '-x+y, y, -z+1/2'
3 '-y, -x, -z+1/2'
4 '-x+y, -x, -z+1/2'
5 '-y, x-y, -z+1/2'
6 'x, y, -z+1/2'
7 '-x, -x+y, z+1/2'
8 'x-y, -y, z+1/2'
9 'y, x, z+1/2'
10 'x-y, x, z+1/2'
11 'y, -x+y, z+1/2'
12 '-x, -y, z+1/2'
13 '-x, -x+y, -z'
14 'x-y, -y, -z'
15 'y, x, -z'
16 'x-y, x, -z'
17 'y, -x+y, -z'
18 '-x, -y, -z'
19 'x, x-y, z'
20 '-x+y, y, z'
21 '-y, -x, z'
22 '-x+y, -x, z'
23 '-y, x-y, z'
24 'x, y, z'
loop_
_atom_type_symbol
_atom_type_oxidation_number
Cs1+ 1
Cd2+ 2
Br1- -1
loop_
_atom_site_label
_atom_site_type_symbol
_atom_site_symmetry_multiplicity
_atom_site_Wyckoff_symbol
_atom_site_fract_x
_atom_site_fract_y
_atom_site_fract_z
_atom_site_B_iso_or_equiv
_atom_site_occupancy
Cs1 Cs1+ 2 d 0.6667 0.3333 0.25 4.2(1) 0.5
Cd1 Cd2+ 2 a 0 0 0 3.2(1) 0.5
Br1 Br1- 6 h 0.1667 0.3333 0.25 4.4(1) 0.5
#End of TTdata_8590-ICSD