####################################################################### 
# 
# This file contains crystal structure data downloaded from the 
# Cambridge Structural Database (CSD) hosted by the Cambridge 
# Crystallographic Data Centre (CCDC) in cooperation with FIZ Karlsruhe.
# 
# Please note that these data are only for research purposes or private use.
# For detailed information please see under Terms & Conditions.
# Full information about CCDC and FIZ Karlsruhe data access policies and 
# citation guidelines are available at http://www.ccdc.cam.ac.uk/access/V1
# 
# Audit and citation data items may have been added by FIZ Karlsruhe. 
# Please retain this information to preserve the provenance of 
# this file and to allow appropriate attribution of the data. 
# 
#######################################################################

data_86172-ICSD
_database_code_depnum_ccdc_archive 'CCDC 1646074'
loop_
_citation_id
_citation_doi
_citation_year
1 10.1039/a800492g 1998
_audit_update_record             
;
2018-02-27 deposited with the CCDC.	2022-10-29 downloaded from the CCDC.
;
_database_code_ICSD              86172
_chemical_name_systematic        
;
Tetracalcium Gadolinium Oxide Tris(borate)
;
_chemical_formula_sum            'B3 Ca4 Gd1 O10'
_cell_length_a                   8.078
_cell_length_b                   15.981
_cell_length_c                   3.5519
_cell_angle_alpha                90
_cell_angle_beta                 101.26
_cell_angle_gamma                90
_cell_volume                     449.7
_cell_formula_units_Z            2
_symmetry_space_group_name_H-M   'C 1 m 1'
_symmetry_Int_Tables_number      8
_symmetry_cell_setting           monoclinic
_refine_ls_R_factor_all          0.021
loop_
_symmetry_equiv_pos_site_id
_symmetry_equiv_pos_as_xyz
1 'x, -y, z'
2 'x, y, z'
3 'x+1/2, -y+1/2, z'
4 'x+1/2, y+1/2, z'
loop_
_atom_site_label
_atom_site_type_symbol
_atom_site_fract_x
_atom_site_fract_y
_atom_site_fract_z
Gd1 Gd3+ 0 0 0
Ca1 Ca2+ 0.1415 0.3873 0.3263
Ca2 Ca2+ 0.2618 0.1816 0.6521
O1 O2- 0.8259 0 0.4212
O2 O2- 0.4611 0.9254 0.749
O3 O2- 0.7925 0.1724 0.8854
O4 O2- 0.0862 0.143 0.0781
O5 O2- 0.969 0.2684 0.2773
O6 O2- 0.2024 0 0.6087
B1 B3+ 0.3762 0 0.7011
B2 B3+ 0.9491 0.1944 0.0819

#End of data_86172-ICSD


