
#(C) 2020 by FIZ Karlsruhe - Leibniz Institute for Information Infrastructure.  All rights reserved.
data_87519-ICSD
_database_code_ICSD 87519
_audit_creation_date 2000-12-16
_audit_update_record 2009-02-01
_chemical_name_common 'Rubidium triborate - beta'
_chemical_formula_structural 'Rb (B3 O5)'
_chemical_formula_sum 'B3 O5 Rb1'
_chemical_name_structure_type CsB3O5
_exptl_crystal_density_diffrn 2.86
_citation_title

;
Crystal structure and thermal expansion of the high temperature modification
beta-(Rb B3 O5)
;
loop_
_citation_id
_citation_journal_full
_citation_year
_citation_journal_volume
_citation_page_first
_citation_page_last
_citation_journal_id_ASTM
primary Kristallografiya 1998 43 26 30 KRISAJ
loop_
_citation_author_citation_id
_citation_author_name
primary 'Krzhizhanovskaya, M.G.'
primary 'Bubnova, R.S.'
primary 'Fundamenskii, V.S.'
primary 'Bannova, I.I.'
primary 'Polyakova, I.G.'
primary 'Filatov, S.K.'
_cell_length_a 8.438(6)
_cell_length_b 8.719(4)
_cell_length_c 6.240(3)
_cell_angle_alpha 90.
_cell_angle_beta 90.
_cell_angle_gamma 90.
_cell_volume 459.08
_cell_formula_units_Z 4
_space_group_name_H-M_alt 'P 21 21 21'
_space_group_IT_number 19
loop_
_space_group_symop_id
_space_group_symop_operation_xyz
1 '-x, y+1/2, -z+1/2'
2 'x+1/2, -y+1/2, -z'
3 '-x+1/2, -y, z+1/2'
4 'x, y, z'
loop_
_atom_type_symbol
_atom_type_oxidation_number
Rb1+ 1
O2- -2
B3+ 3
loop_
_atom_site_label
_atom_site_type_symbol
_atom_site_symmetry_multiplicity
_atom_site_Wyckoff_symbol
_atom_site_fract_x
_atom_site_fract_y
_atom_site_fract_z
_atom_site_B_iso_or_equiv
_atom_site_occupancy
Rb1 Rb1+ 4 a 0.3433(2) 0.6041(2) 0.1339(3) 1.75(2) 1.
O1 O2- 4 a 0.334(1) 0.700(1) 0.634(2) 1.3(2) 1.
O2 O2- 4 a 0.508(1) 0.914(1) 0.720(2) 1.4(2) 1.
O3 O2- 4 a 0.559(1) 0.758(1) 0.408(2) 1.4(2) 1.
O4 O2- 4 a 0.606(1) 0.664(1) 0.764(2) 1.4(2) 1.
O5 O2- 4 a 0.228(1) 0.952(1) 0.677(2) 1.7(2) 1.
B1 B3+ 4 a 0.380(2) 0.007(2) 0.715(2) 0.6(2) 1.
B2 B3+ 4 a 0.501(2) 0.756(2) 0.631(3) 0.9(2) 1.
B3 B3+ 4 a 0.211(2) 0.797(2) 0.621(3) 1.3(2) 1.
#End of TTdata_87519-ICSD