
#(C) 2020 by FIZ Karlsruhe - Leibniz Institute for Information Infrastructure.  All rights reserved.
data_88790-ICSD
_database_code_ICSD 88790
_audit_creation_date 2001-07-16
_chemical_name_common 'Strontium phyllo-germanotellurate'
_chemical_formula_structural 'Sr (Ge Te O6)'
_chemical_formula_sum 'Ge1 O6 Sr1 Te1'
_chemical_name_structure_type NaNiIO6
_exptl_crystal_density_diffrn 5.31
_citation_title

;
Structural studies and order-disorder phenomenon in a series of new quaternary
tellurates of the type A(2+) M(4+) Te(6+) O6 and A(1+)2 M(4+) Te(6+) O6
;
loop_
_citation_id
_citation_journal_full
_citation_year
_citation_journal_volume
_citation_page_first
_citation_page_last
_citation_journal_id_ASTM
primary 'Journal of Solid State Chemistry' 1999 147 99 116 JSSCBI
loop_
_citation_author_citation_id
_citation_author_name
primary 'Woodward, P.M.'
primary 'Sleight, A.W.'
primary 'Du, L.-S.'
primary 'Grey, C.P.'
_cell_length_a 5.06566(3)
_cell_length_b 5.06566(3)
_cell_length_c 5.40394(5)
_cell_angle_alpha 90.
_cell_angle_beta 90.
_cell_angle_gamma 120.
_cell_volume 120.09
_cell_formula_units_Z 1
_space_group_name_H-M_alt 'P 3 1 2'
_space_group_IT_number 149
loop_
_space_group_symop_id
_space_group_symop_operation_xyz
1 'x, x-y, -z'
2 '-x+y, y, -z'
3 '-y, -x, -z'
4 '-x+y, -x, z'
5 '-y, x-y, z'
6 'x, y, z'
loop_
_atom_type_symbol
_atom_type_oxidation_number
Sr2+ 2
Ge4+ 4
Te6+ 6
O2- -2
loop_
_atom_site_label
_atom_site_type_symbol
_atom_site_symmetry_multiplicity
_atom_site_Wyckoff_symbol
_atom_site_fract_x
_atom_site_fract_y
_atom_site_fract_z
_atom_site_B_iso_or_equiv
_atom_site_occupancy
Sr1 Sr2+ 1 a 0 0 0 0.96(2) 1.
Ge1 Ge4+ 1 f 0.6667 0.3333 0.5 0.63(1) 1.
Te1 Te6+ 1 d 0.3333 0.6667 0.5 0.63(1) 1.
O1 O2- 6 l 0.380(1) 0.005(1) 0.3111(6) 1.08(8) 1.
#End of TTdata_88790-ICSD