
#(C) 2020 by FIZ Karlsruhe - Leibniz Institute for Information Infrastructure.  All rights reserved.
data_89423-ICSD
_database_code_ICSD 89423
_audit_creation_date 2001-07-16
_audit_update_record 2010-08-01
_chemical_name_common 'Strontium dialumodiborate'
_chemical_formula_structural 'Sr (Al2 B2 O7)'
_chemical_formula_sum 'Al2 B2 O7 Sr1'
_chemical_name_structure_type SrAl2B2O7
_exptl_crystal_density_diffrn 2.75
_citation_title 'Crystal structures of metal aluminium borates'
loop_
_citation_id
_citation_journal_full
_citation_year
_citation_journal_volume
_citation_page_first
_citation_page_last
_citation_journal_id_ASTM
primary 'Rigaku Journal' 1999 16 17 30 RIJOFV
loop_
_citation_author_citation_id
_citation_author_name
primary 'Kaduk, J.A.'
primary 'Satek, L.C.'
primary 'McKenna, S.T.'
_cell_length_a 4.90363(9)
_cell_length_b 4.90363(9)
_cell_length_c 23.93459(60)
_cell_angle_alpha 90.
_cell_angle_beta 90.
_cell_angle_gamma 120.
_cell_volume 498.42
_cell_formula_units_Z 3
_space_group_name_H-M_alt 'R 3 2 H'
_space_group_IT_number 155
loop_
_space_group_symop_id
_space_group_symop_operation_xyz
1 '-x, -x+y, -z'
2 'x-y, -y, -z'
3 'y, x, -z'
4 '-x+y, -x, z'
5 '-y, x-y, z'
6 'x, y, z'
7 '-x+2/3, -x+y+1/3, -z+1/3'
8 'x-y+2/3, -y+1/3, -z+1/3'
9 'y+2/3, x+1/3, -z+1/3'
10 '-x+y+2/3, -x+1/3, z+1/3'
11 '-y+2/3, x-y+1/3, z+1/3'
12 'x+2/3, y+1/3, z+1/3'
13 '-x+1/3, -x+y+2/3, -z+2/3'
14 'x-y+1/3, -y+2/3, -z+2/3'
15 'y+1/3, x+2/3, -z+2/3'
16 '-x+y+1/3, -x+2/3, z+2/3'
17 '-y+1/3, x-y+2/3, z+2/3'
18 'x+1/3, y+2/3, z+2/3'
loop_
_atom_type_symbol
_atom_type_oxidation_number
Sr2+ 2
Al3+ 3
B3+ 3
O2- -2
loop_
_atom_site_label
_atom_site_type_symbol
_atom_site_symmetry_multiplicity
_atom_site_Wyckoff_symbol
_atom_site_fract_x
_atom_site_fract_y
_atom_site_fract_z
_atom_site_U_iso_or_equiv
_atom_site_occupancy
Sr1 Sr2+ 3 a 0 0 0 0.0092(5) 1.
Al1 Al3+ 6 c 0.6667 0.3333 -.0963(1) 0.0068(12) 1.
B1 B3+ 6 c 0.6667 0.3333 0.0686(4) 0.010(4) 1.
O1 O2- 3 b 0.6667 0.3333 0.8333 0.0259(27) 1.
O2 O2- 18 f 0.3896(8) 0.4159(6) -.0691(2) 0.0264(23) 1.
#End of TTdata_89423-ICSD