
#(C) 2020 by FIZ Karlsruhe - Leibniz Institute for Information Infrastructure.  All rights reserved.
data_90001-ICSD
_database_code_ICSD 90001
_audit_creation_date 2002-04-01
_chemical_name_common 'Ammonium tetrahydroxohexaoxotetraborate dihydrate'
_chemical_formula_structural '(N H4) (B5 O6 (O H)4) (H2 O)2'
_chemical_formula_sum 'H12 B5 N1 O12'
_exptl_crystal_density_diffrn 1.57
_citation_title

;
Crystal growth and optical properties of the polar hydrated pentaborates Rb
(B5 O6 (O H)4) . 2(H2 O) and N H4 (B5 O6 (O H)4) . 2(H2 O) and structure
redetermination of the ammonium compound
;
loop_
_citation_id
_citation_journal_full
_citation_year
_citation_journal_volume
_citation_page_first
_citation_page_last
_citation_journal_id_ASTM
primary 'Crystal Research and Technology' 2000 35 1251 1262 CRTEDF
loop_
_citation_author_citation_id
_citation_author_name
primary 'Becker, P.'
primary 'Held, P.'
primary 'Bohaty, L.'
_cell_length_a 11.3192(7)
_cell_length_b 11.0261(8)
_cell_length_c 9.2316(5)
_cell_angle_alpha 90.
_cell_angle_beta 90.
_cell_angle_gamma 90.
_cell_volume 1152.16
_cell_formula_units_Z 4
_space_group_name_H-M_alt 'A b a 2'
_space_group_IT_number 41
loop_
_space_group_symop_id
_space_group_symop_operation_xyz
1 'x+1/2, -y+1/2, z'
2 '-x+1/2, y+1/2, z'
3 '-x, -y, z'
4 'x, y, z'
5 'x+1/2, -y, z+1/2'
6 '-x+1/2, y, z+1/2'
7 '-x, -y+1/2, z+1/2'
8 'x, y+1/2, z+1/2'
loop_
_atom_type_symbol
_atom_type_oxidation_number
O2- -2
H1+ 1
O2- -2
H1+ 1
O2- -2
H1+ 1
B3+ 3
N3- -3
H1+ 1
loop_
_atom_site_label
_atom_site_type_symbol
_atom_site_symmetry_multiplicity
_atom_site_Wyckoff_symbol
_atom_site_fract_x
_atom_site_fract_y
_atom_site_fract_z
_atom_site_U_iso_or_equiv
_atom_site_occupancy
O1 O2- 8 b 0.9355(1) 0.9144(1) 0.6992(2) 0.0302(3) 1.
O2 O2- 8 b 0.9188(1) 0.0691(1) 0.5128(2) 0.0306(3) 1.
O3 O2- 8 b 0.7474(1) 0.9732(1) 0.6083(2) 0.0354(4) 1.
O4 O2- 8 b 0.7626(1) 0.8231(2) 0.7865(2) 0.0442(5) 1.
H1 H1+ 8 b 0.688(3) 0.826(3) 0.781(4) 0.072(9) 1.
O5 O2- 8 b 0.7242(1) 0.1183(2) 0.4326(2) 0.0544(6) 1.
H2 H1+ 8 b 0.758(3) 0.173(3) 0.378(4) 0.062(9) 1.
O6 O2- 8 b -.0257(1) 0.8241(2) 0.2628(2) 0.0400(4) 1.
H3 H1+ 8 b 0.000(2) 0.748(3) 0.242(3) 0.050(7) 1.
H4 H1+ 8 b 0.006(3) 0.846(3) 0.340(3) 0.045(8) 1.
B1 B3+ 4 a 0 0 0.6058(4) 0.0249(6) 1.
B2 B3+ 8 b 0.8165(2) 0.9041(2) 0.6978(3) 0.0270(4) 1.
B3 B3+ 8 b 0.8005(2) 0.0557(2) 0.5170(3) 0.0306(5) 1.
N1 N3- 4 a 0.5 0 0.5183(4) 0.0418(7) 1.
H5 H1+ 8 b 0.531(4) -.058(4) 0.575(5) 0.11(2) 1.
H6 H1+ 8 b 0.457(6) -.041(6) 0.466(8) 0.18(3) 1.
#End of TTdata_90001-ICSD