
#(C) 2020 by FIZ Karlsruhe - Leibniz Institute for Information Infrastructure.  All rights reserved.
data_91545-ICSD
_database_code_ICSD 91545
_audit_creation_date 2002-10-01
_audit_update_record 2009-02-01
_chemical_name_common 'Rubidium triborate - alpha'
_chemical_formula_structural 'Rb (B3 O5)'
_chemical_formula_sum 'B3 O5 Rb1'
_chemical_name_structure_type CsB3O5
_exptl_crystal_density_diffrn 2.95
_citation_title
'Crystal structure of the low temperature modification alpha-(Rb B3 O5)'
loop_
_citation_id
_citation_journal_full
_citation_year
_citation_journal_volume
_citation_page_first
_citation_page_last
_citation_journal_id_ASTM
primary Kristallografiya 2000 45 629 634 KRISAJ
loop_
_citation_author_citation_id
_citation_author_name
primary 'Krzhizhanovskaya, M.G.'
primary 'Kabalov, Yu.K.'
primary 'Bubnova, R.S.'
primary 'Sokolova, E.V.'
primary 'Filatov, S.K.'
_cell_length_a 8.209(1)
_cell_length_b 10.092(1)
_cell_length_c 5.382(1)
_cell_angle_alpha 90.
_cell_angle_beta 90.
_cell_angle_gamma 90.
_cell_volume 445.87
_cell_formula_units_Z 4
_space_group_name_H-M_alt 'P 21 21 21'
_space_group_IT_number 19
loop_
_space_group_symop_id
_space_group_symop_operation_xyz
1 '-x, y+1/2, -z+1/2'
2 'x+1/2, -y+1/2, -z'
3 '-x+1/2, -y, z+1/2'
4 'x, y, z'
loop_
_atom_type_symbol
_atom_type_oxidation_number
Rb1+ 1
O2- -2
B3+ 3
loop_
_atom_site_label
_atom_site_type_symbol
_atom_site_symmetry_multiplicity
_atom_site_Wyckoff_symbol
_atom_site_fract_x
_atom_site_fract_y
_atom_site_fract_z
_atom_site_B_iso_or_equiv
_atom_site_occupancy
Rb1 Rb1+ 4 a 0.2942(2) 0.1310(2) 0.0992(1) 2.90(4) 1.
O1 O2- 4 a 0.555(1) 0.056(1) 0.432(2) 0.6(1) 1.
O2 O2- 4 a 0.544(1) 0.257(1) 0.705(2) 0.3(1) 1.
O3 O2- 4 a 0.727(2) 0.072(1) 0.815(2) 0.8(1) 1.
O4 O2- 4 a 0.777(1) 0.213(1) 0.431(2) 0.9(1) 1.
O5 O2- 4 a 0.996(1) 0.090(1) 0.632(2) 0.6(1) 1.
B1 B3+ 4 a 0.885(4) 0.030(3) 0.775(5) 3.1(3) 1.
B2 B3+ 4 a 0.942(3) 0.182(2) 0.472(7) 1.8(3) 1.
B3 B3+ 4 a 0.644(3) 0.153(2) 0.600(4) 0.4(3) 1.
#End of TTdata_91545-ICSD