
#(C) 2020 by FIZ Karlsruhe - Leibniz Institute for Information Infrastructure.  All rights reserved.
data_91540-ICSD
_database_code_ICSD 91540
_audit_creation_date 2002-10-01
_chemical_name_common 'Calcium strontium pentaborate chloride hydrate'
_chemical_formula_structural 'Ca Sr (B5 O9) Cl (H2 O)'
_chemical_formula_sum 'H2 B5 Ca1 Cl1 O10 Sr1'
_chemical_name_structure_type Ca2B5O9ClH2O
_chemical_name_mineral Hilgardite
_exptl_crystal_density_diffrn 3.04
_citation_title 'Crystal structure of strontian hilgardite'
loop_
_citation_id
_citation_journal_full
_citation_year
_citation_journal_volume
_citation_page_first
_citation_page_last
_citation_journal_id_ASTM
primary Kristallografiya 2000 45 452 457 KRISAJ
loop_
_citation_author_citation_id
_citation_author_name
primary 'Ferro, O.'
primary 'Pushcharovskii, D.Yu.'
primary 'Teat, S.'
primary 'Vinogradova, S.A.'
primary 'Lovskaya, E.V.'
primary 'Pekov, I.V.'
_cell_length_a 6.5732(6)
_cell_length_b 6.4445(6)
_cell_length_c 6.3693(6)
_cell_angle_alpha 60.995(2)
_cell_angle_beta 61.257(2)
_cell_angle_gamma 77.191(2)
_cell_volume 206.87
_cell_formula_units_Z 1
_space_group_name_H-M_alt 'P 1'
_space_group_IT_number 1
loop_
_space_group_symop_id
_space_group_symop_operation_xyz
1 'x, y, z'
loop_
_atom_type_symbol
_atom_type_oxidation_number
Ca2+ 2
Sr2+ 2
Cl1- -1
B3+ 3
O2- -2
H1+ 1
loop_
_atom_site_label
_atom_site_type_symbol
_atom_site_symmetry_multiplicity
_atom_site_Wyckoff_symbol
_atom_site_fract_x
_atom_site_fract_y
_atom_site_fract_z
_atom_site_U_iso_or_equiv
_atom_site_occupancy
Ca1 Ca2+ 1 a 0.2599(1) 0.8359(1) 0.3075(1) 0.077(1) 1.
Sr1 Sr2+ 1 a 0.72040(2) 0.36847(2) 0.97888(2) 0.01346(9) 1.
Cl1 Cl1- 1 a 0.7945(2) 0.8832(2) 0.5199(2) 0.0179(2) 1.
B1 B3+ 1 a 0.3788(5) 0.3553(5) 0.6547(6) 0.0038(4) 1.
B2 B3+ 1 a 0.1679(6) 0.5044(5) 0.0034(6) 0.0048(5) 1.
B3 B3+ 1 a 0.2266(6) 0.2754(5) 0.4104(6) 0.0043(4) 1.
B4 B3+ 1 a 0.2690(6) 0.9448(6) 0.7901(7) 0.0064(5) 1.
B5 B3+ 1 a 0.8304(6) 0.4002(6) 0.4421(7) 0.0057(5) 1.
O1 O2- 1 a 0.6746(5) 0.9274(6) 0.0496(6) 0.0167(5) 1.
O2 O2- 1 a 0.6074(4) 0.3889(5) 0.6228(5) 0.0082(4) 1.
O3 O2- 1 a 0.3038(4) 0.1053(4) 0.8521(5) 0.0076(4) 1.
O4 O2- 1 a 0.3902(4) 0.4086(4) 0.3970(5) 0.0049(4) 1.
O5 O2- 1 a 0.2124(4) 0.5149(4) 0.7549(4) 0.0051(3) 1.
O6 O2- 1 a 0.2388(5) 0.7181(4) 0.9832(5) 0.0095(4) 1.
O7 O2- 1 a 0.9063(4) 0.4802(4) 0.1735(5) 0.0080(4) 1.
O8 O2- 1 a 0.2799(1) 0.3053(4) 0.1504(54) 0.0047(3) 1.
O9 O2- 1 a 0.2509(5) 0.0164(4) 0.5618(5) 0.0079(4) 1.
O10 O2- 1 a 0.9881(4) 0.3429(4) 0.5458(5) 0.0074(4) 1.
H1 H1+ 1 a 0.62(5) 0.83(7) 0.247(16) 0.3(2) 1.
H2 H1+ 1 a 0.81(3) 0.87(4) -.07(4) 0.12(7) 1.
#End of TTdata_91540-ICSD