
#(C) 2020 by FIZ Karlsruhe - Leibniz Institute for Information Infrastructure.  All rights reserved.
data_93598-ICSD
_database_code_ICSD 93598
_audit_creation_date 2003-04-01
_chemical_name_common 'Lead borophosphate(V)'
_chemical_formula_structural 'Pb (B P O5)'
_chemical_formula_sum 'B1 O5 P1 Pb1'
_chemical_name_structure_type BaBPO5
_exptl_crystal_density_diffrn 5.91
_citation_title

;
Crystal structure of A B P O5 and optical study of Pr(3+) embedded in these
compounds
;
loop_
_citation_id
_citation_journal_full
_citation_year
_citation_journal_volume
_citation_page_first
_citation_page_last
_citation_journal_id_ASTM
primary 'Journal of Physics: Condensed Matter' 2001 13 9663 9671 JCOMEL
loop_
_citation_author_citation_id
_citation_author_name
primary 'Ben Ali, A.'
primary 'Antic-Fidancev, E.'
primary 'Viana, B.'
primary 'Aschehoug, P.'
primary 'Taibi, M.'
primary 'Aride, J.'
primary 'Boukhari, A.'
_cell_length_a 6.851(80)
_cell_length_b 6.851(80)
_cell_length_c 6.821(95)
_cell_angle_alpha 90
_cell_angle_beta 90
_cell_angle_gamma 120
_cell_volume 277.26
_cell_formula_units_Z 3
_space_group_name_H-M_alt 'P 31 2 1'
_space_group_IT_number 152
loop_
_space_group_symop_id
_space_group_symop_operation_xyz
1 'x-y, -y, -z+2/3'
2 '-x, -x+y, -z+1/3'
3 'y, x, -z'
4 '-x+y, -x, z+2/3'
5 '-y, x-y, z+1/3'
6 'x, y, z'
loop_
_atom_type_symbol
_atom_type_oxidation_number
Pb2+ 2
P5+ 5
B3+ 3
O2- -2
loop_
_atom_site_label
_atom_site_type_symbol
_atom_site_symmetry_multiplicity
_atom_site_Wyckoff_symbol
_atom_site_fract_x
_atom_site_fract_y
_atom_site_fract_z
_atom_site_B_iso_or_equiv
_atom_site_occupancy
Pb1 Pb2+ 3 a 0.3917(1) 0 0.3333 0.43 1.
P1 P5+ 3 b 0.3913(2) 0 0.8333 1.4 1.
B1 B3+ 3 a -0.0921(1) 0 0.3333 0.5 1.
O1 O2- 6 c 0.3326(6) 0.1415(9) -0.0327(7) 1.01 1.
O2 O2- 6 c 0.4192(8) 0.8594(1) -0.0291(9) 1.22 1.
O3 O2- 3 b -0.0512(9) 0 0.8333 1.01 1.
#End of TTdata_93598-ICSD