
#(C) 2020 by FIZ Karlsruhe - Leibniz Institute for Information Infrastructure.  All rights reserved.
data_93602-ICSD
_database_code_ICSD 93602
_audit_creation_date 2003-04-01
_chemical_name_common 'Lithium rubidium tetraborate'
_chemical_formula_structural 'Li Rb (B4 O7)'
_chemical_formula_sum 'B4 Li1 O7 Rb1'
_chemical_name_structure_type LiKB4O7
_exptl_crystal_density_diffrn 2.64
_citation_title

;
Structural study of Li K B4 O7 and Li Rb B4 O7: new nonlinear optical crystals
;
loop_
_citation_id
_citation_journal_full
_citation_year
_citation_journal_volume
_citation_page_first
_citation_page_last
_citation_journal_id_ASTM
primary 'Journal of Crystal Growth' 2001 229 472 476 JCRGAE
loop_
_citation_author_citation_id
_citation_author_name
primary 'Ono, Y.'
primary 'Nakaya, M.'
primary 'Sugawara, T.'
primary 'Watanabe, N.'
primary 'Siraishi, H.'
primary 'Komatsu, R.'
primary 'Kajitani, T.'
_cell_length_a 8.6257(12)
_cell_length_b 11.2576(13)
_cell_length_c 12.8531(15)
_cell_angle_alpha 90
_cell_angle_beta 90
_cell_angle_gamma 90
_cell_volume 1248.1
_cell_formula_units_Z 8
_space_group_name_H-M_alt 'P 21 21 21'
_space_group_IT_number 19
loop_
_space_group_symop_id
_space_group_symop_operation_xyz
1 '-x, y+1/2, -z+1/2'
2 'x+1/2, -y+1/2, -z'
3 '-x+1/2, -y, z+1/2'
4 'x, y, z'
loop_
_atom_type_symbol
_atom_type_oxidation_number
Rb1+ 1
O2- -2
B3+ 3
Li1+ 1
loop_
_atom_site_label
_atom_site_type_symbol
_atom_site_symmetry_multiplicity
_atom_site_Wyckoff_symbol
_atom_site_fract_x
_atom_site_fract_y
_atom_site_fract_z
_atom_site_U_iso_or_equiv
_atom_site_occupancy
Rb1 Rb1+ 4 a 0.79945(6) 0.62459(5) 0.29148(4) 0.0209(1) 1.
Rb2 Rb1+ 4 a 0.13857(6) 0.53825(5) 0.59969(4) 0.0214(1) 1.
O1 O2- 4 a -0.0033(4) 0.2839(3) 0.5311(3) 0.0114(7) 1.
O2 O2- 4 a 0.7468(4) 0.2872(3) 0.4487(3) 0.0117(7) 1.
O3 O2- 4 a 0.9356(4) 0.4233(3) 0.3942(3) 0.0170(8) 1.
O4 O2- 4 a 0.8252(4) 0.4422(3) 0.5666(3) 0.0135(8) 1.
O5 O2- 4 a 0.6496(4) 0.5681(3) 0.6501(3) 0.0154(8) 1.
O6 O2- 4 a 0.4376(4) 0.6583(3) 0.5614(3) 0.0164(8) 1.
O7 O2- 4 a 0.6255(4) 0.5381(3) 0.4677(3) 0.0163(7) 1.
O8 O2- 4 a 0.3620(4) 0.5393(3) 0.4167(3) 0.0172(7) 1.
O9 O2- 4 a 0.5231(4) 0.7143(3) 0.3902(3) 0.0156(8) 1.
O10 O2- 4 a 0.4660(4) 0.8392(3) 0.2457(3) 0.0132(7) 1.
O11 O2- 4 a 0.2990(4) 0.6803(3) 0.2852(3) 0.0178(8) 1.
O12 O2- 4 a 0.1462(3) 0.5096(3) 0.3030(3) 0.0245(9) 1.
O13 O2- 4 a 0.0426(6) 0.3292(4) 0.2426(3) 0.031(1) 1.
O14 O2- 4 a 0.1867(4) 0.3259(3) 0.3997(3) 0.0124(7) 1.
B1 B3+ 4 a 0.8781(6) 0.3600(5) 0.4836(4) 0.009(1) 1.
B2 B3+ 4 a 0.7012(7) 0.5166(5) 0.5571(6) 0.011(1) 1.
B3 B3+ 4 a 0.5118(6) 0.6323(6) 0.6510(5) 0.014(1) 1.
B4 B3+ 4 a 0.4866(7) 0.6143(6) 0.4590(4) 0.015(1) 1.
B5 B3+ 4 a 0.4353(6) 0.7491(5) 0.3059(5) 0.013(1) 1.
B6 B3+ 4 a 0.2669(7) 0.5742(5) 0.3374(4) 0.014(1) 1.
B7 B3+ 4 a 0.0757(6) 0.3984(4) 0.3379(4) 0.009(1) 1.
B8 B3+ 4 a 0.1432(7) 0.2738(4) 0.4912(4) 0.010(1) 1.
Li1 Li1+ 4 a 0.427(1) 0.3554(8) 0.3814(7) 0.019(2) 1.
Li2 Li1+ 4 a 0.757(1) 0.3287(9) 0.3043(8) 0.021(2) 1.
#End of TTdata_93602-ICSD