
#(C) 2020 by FIZ Karlsruhe - Leibniz Institute for Information Infrastructure.  All rights reserved.
data_94334-ICSD
_database_code_ICSD 94334
_audit_creation_date 2003-10-01
_chemical_name_common 'Dibismuth germanate'
_chemical_formula_structural 'Bi2 (Ge O5)'
_chemical_formula_sum 'Bi2 Ge1 O5'
_chemical_name_structure_type Bi2O2SiO3
_exptl_crystal_density_diffrn 8.19
_citation_title 'Modelling the crystal structures of Aurivillius phases'
loop_
_citation_id
_citation_journal_full
_citation_year
_citation_journal_volume
_citation_page_first
_citation_page_last
_citation_journal_id_ASTM
primary 'Solid State Ionics' 2001 140 115 123 SSIOD3
loop_
_citation_author_citation_id
_citation_author_name
primary 'Pirovano, C.'
primary 'Islam, M.S.'
primary 'Vannier, R.S.'
primary 'Nowogrocki, G.'
primary 'Mairesse, G.'
_cell_length_a 15.667(1)
_cell_length_b 5.493(3)
_cell_length_c 5.376(4)
_cell_angle_alpha 90
_cell_angle_beta 90
_cell_angle_gamma 90
_cell_volume 462.65
_cell_formula_units_Z 4
_space_group_name_H-M_alt 'C m c 21'
_space_group_IT_number 36
loop_
_space_group_symop_id
_space_group_symop_operation_xyz
1 'x, -y, z+1/2'
2 '-x, -y, z+1/2'
3 '-x, y, z'
4 'x, y, z'
5 'x+1/2, -y+1/2, z+1/2'
6 '-x+1/2, -y+1/2, z+1/2'
7 '-x+1/2, y+1/2, z'
8 'x+1/2, y+1/2, z'
loop_
_atom_type_symbol
_atom_type_oxidation_number
Bi3+ 3
Ge4+ 4
O2- -2
loop_
_atom_site_label
_atom_site_type_symbol
_atom_site_symmetry_multiplicity
_atom_site_Wyckoff_symbol
_atom_site_fract_x
_atom_site_fract_y
_atom_site_fract_z
_atom_site_B_iso_or_equiv
_atom_site_occupancy
Bi1 Bi3+ 8 b 0.16777(3) 0.21808(9) 0.25 0.46(1) 1.
Ge1 Ge4+ 4 a 0 0.6862(4) 0.2126(6) 0.19(4) 1.
O1 O2- 4 a 0 0.579(3) 0.529(4) 1.1(3) 1.
O2 O2- 8 b 0.09580(8) 0.168(2) 0.666(3) 0.9(2) 1.
O3 O2- 8 b 0.2530(6) 0.482(3) 0.475(3) 0.4(2) 1.
#End of TTdata_94334-ICSD