
#(C) 2020 by FIZ Karlsruhe - Leibniz Institute for Information Infrastructure.  All rights reserved.
data_95300-ICSD
_database_code_ICSD 95300
_audit_creation_date 2003-10-01
_chemical_name_common 'Strontium tetraborate'
_chemical_formula_structural 'Sr (B4 O7)'
_chemical_formula_sum 'B4 O7 Sr1'
_chemical_name_structure_type SrB4O7
_exptl_crystal_density_diffrn 3.99
_diffrn_ambient_temperature 295.
_citation_title
'The crystal structure and NLO property of strontium tetraborate Sr B4 O7'
loop_
_citation_id
_citation_journal_full
_citation_year
_citation_journal_volume
_citation_page_first
_citation_page_last
_citation_journal_id_ASTM
primary 'Gaodeng Xuexiao Huaxue Xuebao' 2001 22 154 158 KTHPDM
loop_
_citation_author_citation_id
_citation_author_name
primary 'Pan, F.'
primary 'Wang, R.-J.'
primary 'Wei, J.-Z.'
primary 'Shen, G.-Q.'
primary 'Wang, X.-Q.'
primary 'Shen, D.-Z.'
_cell_length_a 10.724(2)
_cell_length_b 4.447(3)
_cell_length_c 4.2392(11)
_cell_angle_alpha 90
_cell_angle_beta 90
_cell_angle_gamma 90
_cell_volume 202.17
_cell_formula_units_Z 2
_space_group_name_H-M_alt 'P m n 21'
_space_group_IT_number 31
loop_
_space_group_symop_id
_space_group_symop_operation_xyz
1 'x+1/2, -y, z+1/2'
2 '-x+1/2, -y, z+1/2'
3 '-x, y, z'
4 'x, y, z'
loop_
_atom_type_symbol
_atom_type_oxidation_number
Sr2+ 2
O2- -2
B3+ 3
loop_
_atom_site_label
_atom_site_type_symbol
_atom_site_symmetry_multiplicity
_atom_site_Wyckoff_symbol
_atom_site_fract_x
_atom_site_fract_y
_atom_site_fract_z
_atom_site_U_iso_or_equiv
_atom_site_occupancy
Sr1 Sr2+ 2 a 0 0.288 0 0.0058 1.
O1 O2- 2 a 0 0.726 0.576 0.0045 1.
O2 O2- 4 b 0.359 0.857 0.041 0.0049 1.
O3 O2- 4 b 0.365 0.226 0.632 0.004 1.
O4 O2- 4 b 0.223 0.632 0.636 0.0035 1.
B1 B3+ 4 b 0.378 0.174 0.969 0.0037 1.
B2 B3+ 4 b 0.249 0.679 0.995 0.0039 1.
#End of TTdata_95300-ICSD