
#(C) 2020 by FIZ Karlsruhe - Leibniz Institute for Information Infrastructure.  All rights reserved.
data_95785-ICSD
_database_code_ICSD 95785
_audit_creation_date 2004-04-01
_chemical_name_common 'Lithium zinc thiophosphate(V)'
_chemical_formula_structural 'Li Zn (P S4)'
_chemical_formula_sum 'Li1 P1 S4 Zn1'
_chemical_name_structure_type LiBGeO4
_exptl_crystal_density_diffrn 2.62
_citation_title
'Motive dichtester Kugelpackungen: die Verbindungen Zn3 (P S4)2 und Li Zn P S4'
loop_
_citation_id
_citation_journal_full
_citation_year
_citation_journal_volume
_citation_page_first
_citation_page_last
_citation_journal_id_ASTM
primary 'Zeitschrift fuer Anorganische und Allgemeine Chemie (1950) (DE)' 2002
628 1765 1769 ZAACAB
loop_
_citation_author_citation_id
_citation_author_name
primary 'Joergens, S.'
primary 'Johrendt, D.'
primary 'Mewis, A.'
_cell_length_a 5.738(1)
_cell_length_b 5.738(1)
_cell_length_c 8.914(1)
_cell_angle_alpha 90
_cell_angle_beta 90
_cell_angle_gamma 90
_cell_volume 293.49
_cell_formula_units_Z 2
_space_group_name_H-M_alt 'I -4'
_space_group_IT_number 82
loop_
_space_group_symop_id
_space_group_symop_operation_xyz
1 '-y, x, -z'
2 'y, -x, -z'
3 '-x, -y, z'
4 'x, y, z'
5 '-y+1/2, x+1/2, -z+1/2'
6 'y+1/2, -x+1/2, -z+1/2'
7 '-x+1/2, -y+1/2, z+1/2'
8 'x+1/2, y+1/2, z+1/2'
loop_
_atom_type_symbol
_atom_type_oxidation_number
Li1+ 1
Zn2+ 2
P5+ 5
S2- -2
loop_
_atom_site_label
_atom_site_type_symbol
_atom_site_symmetry_multiplicity
_atom_site_Wyckoff_symbol
_atom_site_fract_x
_atom_site_fract_y
_atom_site_fract_z
_atom_site_U_iso_or_equiv
_atom_site_occupancy
Li1 Li1+ 2 b 0 0 0.5 0.0040(16) 1.
Zn1 Zn2+ 2 a 0 0 0 0.0184(3) 1.
P1 P5+ 2 c 0 0.5 0.25 0.0132(3) 1.
S1 S2- 8 g 0.7875(2) 0.2772(2) 0.1348(1) 0.0186(2) 1.
#End of TTdata_95785-ICSD