
#(C) 2020 by FIZ Karlsruhe - Leibniz Institute for Information Infrastructure.  All rights reserved.
data_95784-ICSD
_database_code_ICSD 95784
_audit_creation_date 2004-04-01
_chemical_name_common 'Trizinc bis(tetrathiophosphate(V))'
_chemical_formula_structural 'Zn3 (P S4)2'
_chemical_formula_sum 'P2 S8 Zn3'
_exptl_crystal_density_diffrn 3.08
_citation_title
'Motive dichtester Kugelpackungen: die Verbindungen Zn3 (P S4)2 und Li Zn P S4'
loop_
_citation_id
_citation_journal_full
_citation_year
_citation_journal_volume
_citation_page_first
_citation_page_last
_citation_journal_id_ASTM
primary 'Zeitschrift fuer Anorganische und Allgemeine Chemie (1950) (DE)' 2002
628 1765 1769 ZAACAB
loop_
_citation_author_citation_id
_citation_author_name
primary 'Joergens, S.'
primary 'Johrendt, D.'
primary 'Mewis, A.'
_cell_length_a 7.823(1)
_cell_length_b 7.823(1)
_cell_length_c 9.053(1)
_cell_angle_alpha 90
_cell_angle_beta 90
_cell_angle_gamma 90
_cell_volume 554.04
_cell_formula_units_Z 2
_space_group_name_H-M_alt 'P -4 n 2'
_space_group_IT_number 118
loop_
_space_group_symop_id
_space_group_symop_operation_xyz
1 '-y+1/2, -x+1/2, -z+1/2'
2 'y, -x, -z'
3 'x+1/2, -y+1/2, z+1/2'
4 '-x, -y, z'
5 'y+1/2, x+1/2, -z+1/2'
6 '-y, x, -z'
7 '-x+1/2, y+1/2, z+1/2'
8 'x, y, z'
loop_
_atom_type_symbol
_atom_type_oxidation_number
Zn2+ 2
P5+ 5
S2- -2
loop_
_atom_site_label
_atom_site_type_symbol
_atom_site_symmetry_multiplicity
_atom_site_Wyckoff_symbol
_atom_site_fract_x
_atom_site_fract_y
_atom_site_fract_z
_atom_site_U_iso_or_equiv
_atom_site_occupancy
Zn1 Zn2+ 2 b 0 0 0.5 0.0119(1) 1.
Zn2 Zn2+ 4 h 0 0.5 0.98094(5) 0.0134(1) 1.
P1 P5+ 4 g 0.25539(6) 0.75539(6) 0.25 0.0086(1) 1.
S1 S2- 8 i 0.76603(6) 0.03249(7) 0.12599(6) 0.0142(1) 1.
S2 S2- 8 i 0.75296(5) 0.47841(6) 0.13849(6) 0.0102(1) 1.
#End of TTdata_95784-ICSD