
#(C) 2020 by FIZ Karlsruhe - Leibniz Institute for Information Infrastructure.  All rights reserved.
data_97512-ICSD
_database_code_ICSD 97512
_audit_creation_date 2004-10-01
_chemical_name_common 'Cesium nonaborate - alpha'
_chemical_formula_structural 'Cs (B9 O14)'
_chemical_formula_sum 'B9 Cs1 O14'
_exptl_crystal_density_diffrn 2.5
_citation_title 'Refinement of alpha-(Cs B9 O14) crystal structure'
loop_
_citation_id
_citation_journal_full
_citation_year
_citation_journal_volume
_citation_page_first
_citation_page_last
_citation_journal_id_ASTM
primary 'Journal of Solid State Chemistry' 2003 175 348 352 JSSCBI
loop_
_citation_author_citation_id
_citation_author_name
primary 'Penin, N.'
primary 'Touboul, M.'
primary 'Nowogrocki, G.'
_cell_length_a 8.732(2)
_cell_length_b 8.767(3)
_cell_length_c 15.736(4)
_cell_angle_alpha 90
_cell_angle_beta 90
_cell_angle_gamma 90
_cell_volume 1204.64
_cell_formula_units_Z 4
_space_group_name_H-M_alt 'P 2 2 21'
_space_group_IT_number 17
loop_
_space_group_symop_id
_space_group_symop_operation_xyz
1 '-x, y, -z+1/2'
2 '-x, -y, z+1/2'
3 'x, -y, -z'
4 'x, y, z'
loop_
_atom_type_symbol
_atom_type_oxidation_number
Cs1+ 1
O2- -2
B3+ 3
loop_
_atom_site_label
_atom_site_type_symbol
_atom_site_symmetry_multiplicity
_atom_site_Wyckoff_symbol
_atom_site_fract_x
_atom_site_fract_y
_atom_site_fract_z
_atom_site_U_iso_or_equiv
_atom_site_occupancy
Cs1 Cs1+ 2 d 0.5 0.5266(1) 0.25 0.03343(8) 1.
Cs2 Cs1+ 2 a 0.0072(1) 0 0 0.03725(10) 1.
O1 O2- 4 e 0.8133(3) 0.5229(3) 0.1328(2) 0.0256(6) 1.
O2 O2- 4 e 0.0155(4) 0.3292(2) 0.1156(2) 0.0264(5) 1.
O3 O2- 4 e 0.7870(3) 0.2907(3) 0.2024(2) 0.0281(6) 1.
O4 O2- 4 e 0.7781(3) 0.2933(3) 0.0496(2) 0.0282(6) 1.
O5 O2- 4 e 0.0750(4) 0.5901(4) 0.1321(3) 0.0545(10) 1.
O6 O2- 4 e 0.8972(4) 0.7783(3) 0.1502(2) 0.0380(7) 1.
O7 O2- 4 e 0.2691(4) 0.4215(4) 0.1037(2) 0.0383(7) 1.
O8 O2- 4 e 0.8398(4) 0.0304(3) 0.1749(2) 0.0377(7) 1.
O9 O2- 4 e 0.7015(4) 0.1052(3) 0.2968(2) 0.0382(8) 1.
O10 O2- 4 e 0.7245(4) 0.8425(3) 0.2630(2) 0.0362(7) 1.
O11 O2- 4 e 0.4002(5) 0.0715(4) 0.8869(2) 0.0618(12) 1.
O12 O2- 4 e 0.519(4) 0.3539(3) 0.0778(2) 0.0364(7) 1.
O13 O2- 4 e 0.5858(4) 0.2008(4) -0.0391(2) 0.0400(9) 1.
O14 O2- 4 e 0.3234(4) 0.2336(4) -0.0032(2) 0.0395(8) 1.
B1 B3+ 4 e 0.8481(5) 0.3616(5) 0.1248(3) 0.0220(7) 1.
B2 B3+ 4 e 0.9222(7) 0.6247(6) 0.1397(3) 0.0293(11) 1.
B3 B3+ 4 e 0.1137(6) 0.4429(6) 0.1169(3) 0.0307(10) 1.
B4 B3+ 4 e 0.7783(6) 0.1467(5) 0.2226(3) 0.0276(10) 1.
B5 B3+ 4 e 0.6780(6) -0.0427(6) 0.3145(3) 0.0324(10) 1.
B6 B3+ 4 e 0.8189(6) 0.8804(5) 0.1956(3) 0.0333(11) 1.
B7 B3+ 4 e 0.6329(6) 0.2847(6) 0.0314(3) 0.0264(10) 1.
B8 B3+ 4 e 0.3678(6) 0.3328(5) 0.0608(3) 0.0323(11) 1.
B9 B3+ 4 e 0.4361(17) 0.1721(6) -0.0523(3) 0.0363(13) 1.
loop_
_atom_site_aniso_label
_atom_site_aniso_type_symbol
_atom_site_aniso_U_11
_atom_site_aniso_U_22
_atom_site_aniso_U_33
_atom_site_aniso_U_12
_atom_site_aniso_U_13
_atom_site_aniso_U_23
Cs1 Cs1+ 0.0343(2) 0.0381(2) 0.0279(2) 0. 0.0009(2) 0.
Cs2 Cs1+ 0.0415(2) 0.0418(2) 0.0285(2) 0. 0. 0.0009(1)
O1 O2- 0.0242(14) 0.0177(12) 0.0348(15) 0.0026(11) 0.0028(12) 0.0019(10)
O2 O2- 0.0200(14) 0.0215(10) 0.0377(13) 0.0019(14) -.0018(15) -.0020(9)
O3 O2- 0.0374(17) 0.0193(12) 0.0274(14) -.0024(12) 0.0072(13) 0.0015(10)
O4 O2- 0.0232(15) 0.0349(14) 0.0264(14) 0.0014(12) 0.0001(12) -.0069(11)
O5 O2- 0.029(2) 0.0246(19) 0.110(3) -.0056(13) 0.004(2) -.011(2)
O6 O2- 0.049(2) 0.0191(13) 0.0460(18) -.0003(13) 0.0032(15) -.0002(12)
O7 O2- 0.0194(15) 0.0442(17) 0.0513(19) 0.0000(13) 0.0019(13) 0.0019(14)
O8 O2- 0.058(2) 0.0198(13) 0.0358(16) -.0042(13) 0.0190(15) 0.0011(11)
O9 O2- 0.050(2) 0.0326(16) 0.0320(15) -.0062(14) 0.0129(15) 0.0029(12)
O10 O2- 0.0410(17) 0.0251(11) 0.0424(19) -.0061(11) 0.0053(16) 0.0144(13)
O11 O2- 0.077(3) 0.048(2) 0.061(2) -.0021(18) -.037(2) -.0208(18)
O12 O2- 0.0179(17) 0.0506(15) 0.0406(14) 0.0003(15) -.0037(14) -.0199(11)
O13 O2- 0.042(2) 0.046(2) 0.0325(17) -.00105(16) 0.0011(15) -.0185(15)
O14 O2- 0.0312(16) 0.0380(18) 0.049(2) -.0082(14) -.0155(15) -.0015(13)
B1 B3+ 0.020(2) 0.022(2) 0.0238(18) 0.0013(14) 0.0024(18) -.0001(16)
B2 B3+ 0.035(3) 0.020(2) 0.033(3) -.0017(19) 0.003(2) -.0003(18)
B3 B3+ 0.024(2) 0.028(2) 0.040(3) 0.001(2) -.004(2) 0.003(3)
B4 B3+ 0.032(3) 0.023(2) 0.028(2) -.0005(17) 0.0049(19) 0.0010(15)
B5 B3+ 0.031(2) 0.032(2) 0.034(2) -.007(2) 0.002(2) 0.0091(19)
B6 B3+ 0.035(3) 0.022(2) 0.043(3) -.0045(18) -.006(2) 0.0081(18)
B7 B3+ 0.025(2) 0.026(2) 0.028(2) -.0031(19) -.0006(19) -.0083(18)
B8 B3+ 0.028(3) 0.027(2) 0.042(3) -.0067(19) -.008(2) 0.001(2)
B9 B3+ 0.047(3) 0.028(2) 0.034(3) -.014(2) -.017(3) 0.001(2)
#End of TTdata_97512-ICSD