
#(C) 2020 by FIZ Karlsruhe - Leibniz Institute for Information Infrastructure.  All rights reserved.
data_97675-ICSD
_database_code_ICSD 97675
_audit_creation_date 2004-10-01
_chemical_name_common 'Strontium borophosphate(V)'
_chemical_formula_structural 'Sr (B P O5)'
_chemical_formula_sum 'B1 O5 P1 Sr1'
_chemical_name_structure_type BaBPO5
_exptl_crystal_density_diffrn 3.7
_diffrn_ambient_temperature 291.
_citation_title
'Growth, structure and properties of single crystals of Sr B P O5'
loop_
_citation_id
_citation_journal_full
_citation_year
_citation_journal_volume
_citation_page_first
_citation_page_last
_citation_journal_id_ASTM
primary 'Chemistry of Materials' 2003 15 2218 2221 CMATEX
loop_
_citation_author_citation_id
_citation_author_name
primary 'Pan Shilie'
primary 'Wu Xicheng'
primary 'Fu Pei Zhen'
primary 'Zhang Guochun'
primary 'Li Zhihua'
primary 'Du Chenxia'
primary 'Chen Chuangyan'
_cell_length_a 6.8850(10)
_cell_length_b 6.8850(10)
_cell_length_c 6.8700(14)
_cell_angle_alpha 90
_cell_angle_beta 90
_cell_angle_gamma 120
_cell_volume 282.03
_cell_formula_units_Z 3
_space_group_name_H-M_alt 'P 32 2 1'
_space_group_IT_number 154
loop_
_space_group_symop_id
_space_group_symop_operation_xyz
1 '-x, -x+y, -z+2/3'
2 'x-y, -y, -z+1/3'
3 'y, x, -z'
4 '-x+y, -x, z+1/3'
5 '-y, x-y, z+2/3'
6 'x, y, z'
loop_
_atom_type_symbol
_atom_type_oxidation_number
Sr2+ 2
P5+ 5
B3+ 3
O2- -2
loop_
_atom_site_label
_atom_site_type_symbol
_atom_site_symmetry_multiplicity
_atom_site_Wyckoff_symbol
_atom_site_fract_x
_atom_site_fract_y
_atom_site_fract_z
_atom_site_U_iso_or_equiv
_atom_site_occupancy
Sr1 Sr2+ 3 b 0.3950(2) 0 0.1667 0.007(1) 1.
P1 P5+ 3 a 0.4051(4) 0 0.6667 0.005(1) 1.
B1 B3+ 3 b 0.8990(20) 0 0.1667 0.009(2) 1.
O1 O2- 6 c 0.5500(11) 0.4122(11) 0.1436(7) 0.012(1) 1.
O2 O2- 6 c 0.6624(9) 0.8116(9) 0.1275(8) 0.009(2) 1.
O3 O2- 3 a 0.0444(12) 0.0444(12) 0 0.012(2) 1.
#End of TTdata_97675-ICSD