
#(C) 2020 by FIZ Karlsruhe - Leibniz Institute for Information Infrastructure.  All rights reserved.
data_97761-ICSD
_database_code_ICSD 97761
_audit_creation_date 2004-10-01
_chemical_name_common 'Tribarium yttrium triborate - beta'
_chemical_formula_structural 'Ba3 Y (B O3)3'
_chemical_formula_sum 'B3 Ba3 O9 Y1'
_chemical_name_structure_type HoBa3(BO3)3
_exptl_crystal_density_diffrn 5.01
_citation_title
'Structure of low temperature phase beta-(Ba3 Y (B O3)3) crystal'
loop_
_citation_id
_citation_journal_full
_citation_year
_citation_journal_volume
_citation_page_first
_citation_page_last
_citation_journal_id_ASTM
primary 'Jiegou Huaxue ' 2003 22 187 189 JHUADF
loop_
_citation_author_citation_id
_citation_author_name
primary 'Pan Shangke'
primary 'Wang Guofu'
_cell_length_a 9.416(3)
_cell_length_b 9.416(3)
_cell_length_c 17.536(8)
_cell_angle_alpha 90
_cell_angle_beta 90
_cell_angle_gamma 120
_cell_volume 1346.46
_cell_formula_units_Z 6
_space_group_name_H-M_alt 'P 63 c m'
_space_group_IT_number 185
loop_
_space_group_symop_id
_space_group_symop_operation_xyz
1 'x, x-y, z+1/2'
2 '-x+y, y, z+1/2'
3 '-y, -x, z+1/2'
4 'x-y, x, z+1/2'
5 'y, -x+y, z+1/2'
6 '-x, -y, z+1/2'
7 '-x, -x+y, z'
8 'x-y, -y, z'
9 'y, x, z'
10 '-x+y, -x, z'
11 '-y, x-y, z'
12 'x, y, z'
loop_
_atom_type_symbol
_atom_type_oxidation_number
Ba2+ 2
Y3+ 3
B3+ 3
O2- -2
loop_
_atom_site_label
_atom_site_type_symbol
_atom_site_symmetry_multiplicity
_atom_site_Wyckoff_symbol
_atom_site_fract_x
_atom_site_fract_y
_atom_site_fract_z
_atom_site_U_iso_or_equiv
_atom_site_occupancy
Ba1 Ba2+ 6 c 0.3434(1) 0 0.4219(1) 0.003(1) 1.
Ba2 Ba2+ 6 c 0.3215(1) 0 0.1824(1) 0.003(1) 1.
Ba3 Ba2+ 2 a 0 0 0.3305(1) 0.004(1) 1.
Ba4 Ba2+ 4 b 0.6667 0.3333 0.2791(1) 0.005(1) 1.
Y1 Y3+ 4 b 0.3333 0.6667 0.5517(2) 0.002(1) 1.
Y2 Y3+ 2 a 0 0 0.5473(2) 0.002(1) 1.
B1 B3+ 6 c 0 0.6700(40) 0.4730(50) 0.023(10) 1.
B2 B3+ 6 c 0.6490(50) 0.6490(50) 0.6320(40) 0.022(8) 1.
B3 B3+ 6 c 0 0.6620(60) 0.3080(50) 0.022(8) 1.
O1 O2- 12 d 0.3298(9) 0.4745(11) 0.4779(8) 0.004(2) 1.
O2 O2- 12 d 0.5132(17) 0.6606(12) 0.6376(10) 0.014(3) 1.
O3 O2- 6 c 0 0.8153(16) 0.4692(11) 0.008(3) 1.
O4 O2- 6 c 0 0.1971(16) 0.6216(11) 0.009(3) 1.
O5 O2- 12 d 0.1478(14) 0.8164(14) 0.3032(9) 0.004(2) 1.
O6 O2- 6 c 0.5189(18) 0 0.3038(10) 0.004(2) 1.
#End of TTdata_97761-ICSD