
#(C) 2020 by FIZ Karlsruhe - Leibniz Institute for Information Infrastructure.  All rights reserved.
data_99842-ICSD
_database_code_ICSD 99842
_audit_creation_date 2005-04-01
_chemical_name_common 'Barium pentaoxoborophosphate(V)'
_chemical_formula_structural 'Ba (B P O5)'
_chemical_formula_sum 'B1 Ba1 O5 P1'
_chemical_name_structure_type BaBPO5
_exptl_crystal_density_diffrn 4.16
_diffrn_ambient_temperature 291.
_citation_title
'Study on the growth, structure of nonlinear optical crystal Ba B P O5'
loop_
_citation_id
_citation_journal_full
_citation_year
_citation_journal_volume
_citation_page_first
_citation_page_last
_citation_journal_id_ASTM
primary 'Rengong Jingti Xuebao' 2003 32 281 285 RJXUEN
loop_
_citation_author_citation_id
_citation_author_name
primary 'Pan Shilie'
primary 'Wu Xicheng'
primary 'Fu Pei Zhen'
primary 'Zhang Guochun'
primary 'Du Chenxia'
primary 'Chen Chuangyan'
_cell_length_a 7.1329(10)
_cell_length_b 7.1329(10)
_cell_length_c 7.0368(14)
_cell_angle_alpha 90
_cell_angle_beta 90
_cell_angle_gamma 120
_cell_volume 310.05
_cell_formula_units_Z 3
_space_group_name_H-M_alt 'P 32 2 1'
_space_group_IT_number 154
loop_
_space_group_symop_id
_space_group_symop_operation_xyz
1 '-x, -x+y, -z+2/3'
2 'x-y, -y, -z+1/3'
3 'y, x, -z'
4 '-x+y, -x, z+1/3'
5 '-y, x-y, z+2/3'
6 'x, y, z'
loop_
_atom_type_symbol
_atom_type_oxidation_number
Ba2+ 2
B3+ 3
P5+ 5
O2- -2
loop_
_atom_site_label
_atom_site_type_symbol
_atom_site_symmetry_multiplicity
_atom_site_Wyckoff_symbol
_atom_site_fract_x
_atom_site_fract_y
_atom_site_fract_z
_atom_site_U_iso_or_equiv
_atom_site_occupancy
Ba1 Ba2+ 3 a 0 0.6050(1) 0.3333 0.006(1) 1.
B1 B3+ 3 a -.0931(9) 0.9069(9) 0 0.004(1) 1.
P1 P5+ 3 b 0 0.6103(2) 0.8333 0.007(1) 1.
O1 O2- 6 c 0.1390(4) 0.8161(4) 0.7028(5) 0.009(1) 1.
O2 O2- 6 c 0.8577(5) 0.4304(5) 0.7006(4) 0.013(1) 1.
O3 O2- 3 b 0.0421(5) 0 0.1667 0.009(1) 1.
#End of TTdata_99842-ICSD